unknown system                          
   1.00000000000000     
     6.000000    0.000000    0.000000
     0.000000    6.000000    0.000000
     0.000000    0.000000    6.000000
   C    O 
     1     1
Direct
  0.000000  0.000000  0.000000
  0.200000  0.000000  0.000000
 
   56   56   56
  254.53      270.68      364.61      484.00      593.78      699.70      835.09      1016.8      1220.3      1410.6    
  1571.0      1694.2      1744.6      1656.8      1396.0      1015.7      637.38      361.22      201.19      112.48    
  63.430      35.987      21.427      13.477      7.6925      3.6206      2.2522      2.3341      1.6783     0.41685    
 0.14685     0.79712     0.86811     0.21172     0.14004     0.90522      1.3207      1.0874      1.4133      2.8423    
  4.4179      5.7862      8.3932      13.647      21.570      32.569      49.235      75.395      115.20      174.04    
  255.64      355.42      446.08      478.93      427.14      325.82      260.16      274.01      358.95      467.57    
  568.54      667.74      794.97      967.65      1165.4      1354.4      1514.1      1632.3      1673.1      1578.4    
  1321.7      957.93      601.35      342.98      192.49      108.25      61.461      35.095      20.949      13.146    
  7.5188      3.5941      2.2411      2.2680      1.6287     0.43358     0.16344     0.76018     0.83128     0.22665    
 0.15972     0.87509      1.2776      1.0836      1.4150      2.7922      4.3369      5.7174      8.2892      13.408    
  21.149      31.921      48.158      73.474      111.81      168.27      246.36      341.44      428.40      462.19    
  417.40      325.70      271.00      279.18      341.30      422.44      500.52      581.90      687.21      834.10    
  1012.1      1191.3      1343.9      1446.7      1465.2      1358.6      1119.6      804.10      506.82      295.06    
  169.00      96.743      56.013      32.563      19.566      12.199      7.0223      3.5052      2.2028      2.0894    
  1.4946     0.47549     0.20757     0.66438     0.73445     0.26558     0.21270     0.79722      1.1630      1.0701    
  1.4157      2.6542      4.1103      5.5128      7.9788      12.717      19.934      30.048      45.080      68.070    
  102.39      152.34      220.97      303.66      380.64      416.25      388.97      321.71      273.09      275.07    
  310.34      358.62      408.33      466.13      543.02      652.89      795.21      946.96      1077.3      1156.0    
  1152.7      1046.1      845.94      603.55      386.21      233.00      137.19      80.886      48.252      28.774    
  17.436      10.775      6.2744      3.3351      2.1265      1.8460      1.3115     0.52129     0.26373     0.54521    
 0.61042     0.31325     0.28229     0.70047      1.0121      1.0416      1.4032      2.4567      3.7784      5.1796    
  7.4709      11.648      18.065      27.155      40.419      60.129      88.854      129.83      185.48      251.96    
  315.32      351.40      343.90      305.65      254.46      252.24      265.98      287.15      312.06      346.42    
  396.82      468.99      566.26      674.69      768.36      819.06      804.27      716.49      572.64      411.37    
  272.13      171.06      104.37      64.023      39.573      24.249      14.813      9.0803      5.3826      3.0754    
  2.0028      1.5893      1.1170     0.54627     0.31174     0.43743     0.49275     0.35115     0.34604     0.61116    
 0.86090     0.99145      1.3618      2.2279      3.3867      4.7343      6.7916      10.316      15.759      23.569    
  34.771      50.870      73.590      105.05      146.88      196.78      245.57      278.90      285.81      271.24    
  213.82      210.29      212.04      217.26      226.11      242.59      271.88      315.84      372.84      436.51    
  490.96      517.16      501.51      443.08      355.98      262.82      181.30      118.47      75.803      48.634    
  31.119      19.519      12.007      7.3416      4.4654      2.7407      1.8308      1.3517     0.93510     0.53428    
 0.33515     0.35838     0.40028     0.36525     0.38397     0.53961     0.73023     0.91621      1.2798      1.9842    
  2.9715      4.2058      5.9902      8.8561      13.270      19.683      28.773      41.432      58.645      81.562    
  111.06      145.94      181.05      208.28      221.13      220.24      161.75      158.93      156.82      156.00    
  157.51      164.06      178.92      203.32      234.72      267.17      293.10      303.46      291.97      259.20    
  212.60      161.86      115.70      79.411      53.565      35.842      23.569      15.029      9.3180      5.7469    
  3.6188      2.3648      1.6191      1.1404     0.77304     0.48540     0.32878     0.30606     0.33415     0.35168    
 0.38663     0.48080     0.62358     0.81957      1.1570      1.7318      2.5552      3.6339      5.1346      7.4016    
  10.842      15.879      22.982      32.640      45.303      61.422      81.286      104.22      127.60      147.17    
  159.23      163.14      112.99      111.34      109.29      107.67      107.37      109.86      116.76      128.61    
  144.01      159.68      171.27      174.59      167.18      149.40      124.60      97.666      72.926      52.698    
  37.240      25.715      17.200      11.087      6.9680      4.4050      2.8942      1.9847      1.3825     0.94737    
 0.62887     0.41414     0.29977     0.26908     0.28569     0.31685     0.35799     0.42515     0.53512     0.71255    
  1.0071      1.4762      2.1523      3.0610      4.2933      6.0555      8.6543      12.449      17.792      24.955    
  34.078      45.201      58.250      72.755      87.416      100.11      108.80      112.76      75.510      74.598    
  73.352      72.444      72.355      73.634      76.815      81.997      88.497      94.856      99.175      99.643    
  95.165      85.889      73.266      59.429      46.275      34.859      25.434      17.887      12.076      7.8748    
  5.0751      3.3434      2.2987      1.6255      1.1371     0.76515     0.50093     0.34002     0.26172     0.23809    
 0.24628     0.27223     0.31102     0.36816     0.45916     0.60882     0.85177      1.2285      1.7749      2.5209    
  3.5165      4.8746      6.7967      9.5535      13.415      18.556      24.990      32.581      41.091      50.138    
  59.040      66.773      72.285      75.072      49.452      48.903      48.229      47.924      48.206      49.134    
  50.700      52.788      55.094      57.110      58.185      57.650      55.030      50.284      43.898      36.693    
  29.476      22.786      16.906      12.000      8.1793      5.4480      3.6550      2.5342      1.8128      1.2980    
 0.89897     0.59580     0.39163     0.27754     0.22668     0.21013     0.21157     0.22737     0.25944     0.31211    
 0.39353     0.51825     0.71018      1.0033      1.4343      2.0331      2.8273      3.8713      5.2787      7.2262    
  9.9086      13.457      17.864      22.972      28.521      34.192      39.587      44.193      47.486      49.179    
  32.422      32.040      31.591      31.430      31.695      32.334      33.197      34.111      34.910      35.425    
  35.465      34.790      33.179      30.542      27.016      22.927      18.664      14.564      10.879      7.7963    
  5.4220      3.7478      2.6455      1.9234      1.4098      1.0056     0.68314     0.44894     0.30477     0.23185    
 0.20006     0.18567     0.18011     0.18646     0.21171     0.26125     0.33736     0.44310     0.59141     0.81084    
  1.1385      1.6050      2.2284      3.0295      4.0590      5.4131      7.2166      9.5691      12.479      15.835    
  19.434      23.038      26.395      29.222      31.237      32.274      21.499      21.226      20.831      20.569    
  20.576      20.865      21.354      21.920      22.428      22.747      22.737      22.245      21.135      19.365    
  17.038      14.378      11.653      9.0892      6.8445      5.0099      3.6150      2.6233      1.9410      1.4531    
  1.0696     0.75168     0.50207     0.33346     0.24125     0.20008     0.18011     0.16400     0.15096     0.14984    
 0.17032     0.21720     0.28840     0.37938     0.49390     0.65290     0.89069      1.2394      1.7161      2.3259    
  3.0812      4.0219      5.2167      6.7330      8.5891      10.725      13.017      15.315      17.466      19.302    
  20.643      21.368      14.173      14.013      13.700      13.392      13.205      13.195      13.360      13.645    
  13.958      14.182      14.186      13.851      13.093      11.909      10.397      8.7307      7.0888      5.5996    
  4.3277      3.2928      2.4881      1.8841      1.4315      1.0764     0.78275     0.54181     0.36250     0.25104    
 0.19701     0.17538     0.16096     0.14212     0.12341     0.11753     0.13500     0.17854     0.24322     0.32120    
 0.41058     0.52408     0.68956     0.93843      1.2897      1.7443      2.2976      2.9588      3.7589      4.7348    
  5.8994      7.2224      8.6377      10.065      11.418      12.599      13.500      14.029      9.0935      9.0457    
  8.8812      8.6700      8.4706      8.3193      8.2258      8.1719      8.1193      8.0240      7.8464      7.5526    
  7.1153      6.5262      5.8115      5.0286      4.2434      3.5050      2.8395      2.2587      1.7680      1.3645    
  1.0363     0.76781     0.54953     0.38063     0.26361     0.19576     0.16466     0.15096     0.13735     0.11748    
 0.97805E-01 0.90797E-01 0.10571     0.14383     0.19954     0.26474     0.33515     0.41734     0.53125     0.70294    
 0.95077      1.2775      1.6768      2.1472      2.6990      3.3456      4.0876      4.9035      5.7555      6.6001    
  7.3928      8.0845      8.6222      8.9625      5.8337      5.8538      5.8100      5.7203      5.6003      5.4629    
  5.3136      5.1472      4.9545      4.7340      4.4957      4.2500      3.9954      3.7184      3.4068      3.0613    
  2.6937      2.3185      1.9469      1.5890      1.2569     0.96343     0.71758     0.52189     0.37365     0.26777    
 0.19838     0.15808     0.13681     0.12316     0.10845     0.90858E-01 0.75630E-01 0.71097E-01 0.83452E-01 0.11374    
 0.15798     0.20981     0.26529     0.32785     0.40994     0.52856     0.69718     0.92105      1.1995      1.5324    
  1.9218      2.3674      2.8593      3.3768      3.8949      4.3901      4.8418      5.2285      5.5291      5.7304    
  3.9250      3.9542      3.9483      3.9144      3.8596      3.7970      3.7432      3.7072      3.6826      3.6482    
  3.5754      3.4368      3.2163      2.9197      2.5761      2.2262      1.9020      1.6129      1.3489      1.0976    
 0.85851     0.64440     0.47022     0.34203     0.25439     0.19604     0.15665     0.12927     0.10915     0.92745E-01
 0.78200E-01 0.66012E-01 0.58502E-01 0.58641E-01 0.68919E-01 0.90232E-01 0.12118     0.15898     0.20223     0.25328    
 0.31818     0.40423     0.51783     0.66427     0.84871      1.0762      1.3487      1.6608      1.9979      2.3398    
  2.6701      2.9799      3.2642      3.5132      3.7116      3.8483      2.6407      2.6516      2.6470      2.6352    
  2.6185      2.6021      2.5986      2.6203      2.6660      2.7130      2.7209      2.6482      2.4726      2.2056    
  1.8905      1.5806      1.3119      1.0895     0.89704     0.71806     0.55092     0.40695     0.29799     0.22598    
 0.18194     0.15262     0.12785     0.10379     0.81520E-01 0.63671E-01 0.51966E-01 0.46637E-01 0.46970E-01 0.51981E-01
 0.60950E-01 0.73833E-01 0.91500E-01 0.11566     0.14854     0.19220     0.24769     0.31484     0.39365     0.48699    
 0.60216     0.74848     0.93108      1.1450      1.3754      1.6044      1.8208      2.0223      2.2097      2.3771    
  2.5107      2.5983      1.6258      1.6215      1.6233      1.6342      1.6426      1.6303      1.5836      1.5006    
  1.3918      1.2755      1.1702      1.0862      1.0217     0.96641     0.90900     0.84185     0.76106     0.66512    
 0.55630     0.44293     0.33791     0.25326     0.19469     0.15971     0.13946     0.12316     0.10338     0.79535E-01
 0.56595E-01 0.40280E-01 0.33037E-01 0.33816E-01 0.39957E-01 0.48384E-01 0.56225E-01 0.62383E-01 0.69256E-01 0.82137E-01
 0.10611     0.14311     0.19124     0.24609     0.30356     0.36366     0.43290     0.52180     0.63745     0.77693    
 0.92811      1.0770      1.2150      1.3390      1.4473      1.5345      1.5936      1.6217      1.0161      1.0016    
 0.99630      1.0021      1.0075     0.99147     0.93316     0.82308     0.67135     0.50819     0.37345     0.29851    
 0.29072     0.33083     0.38464     0.42045     0.42130     0.38753     0.33143     0.26893     0.21271     0.16938    
 0.14012     0.12219     0.10996     0.96804E-01 0.78692E-01 0.57010E-01 0.37322E-01 0.24953E-01 0.21731E-01 0.26163E-01
 0.35086E-01 0.44546E-01 0.50766E-01 0.52487E-01 0.52933E-01 0.58606E-01 0.75322E-01 0.10488     0.14448     0.18847    
 0.23144     0.27198     0.31504     0.36934     0.44084     0.52756     0.62115     0.71309     0.79901     0.87728    
 0.94486     0.99565      1.0236      1.0279     0.79860     0.77616     0.74489     0.71554     0.69393     0.68254    
 0.68344     0.69839     0.72578     0.75723     0.77741     0.76888     0.72041     0.63394     0.52502     0.41547    
 0.32301     0.25480     0.20796     0.17490     0.14896     0.12711     0.10916     0.94997E-01 0.82752E-01 0.69548E-01
 0.54085E-01 0.38057E-01 0.24910E-01 0.17461E-01 0.16650E-01 0.21622E-01 0.29953E-01 0.37960E-01 0.42230E-01 0.42079E-01
 0.40709E-01 0.43575E-01 0.55200E-01 0.76843E-01 0.10616     0.13856     0.16983     0.19905     0.22967     0.26703    
 0.31388     0.36782     0.42356     0.47787     0.53248     0.59175     0.65689     0.72150     0.77306     0.79987    
 0.61061     0.59166     0.55754     0.52029     0.49107     0.48134     0.50390     0.56811     0.67011     0.78571    
 0.87443     0.89624     0.83221     0.69572     0.52596     0.36763     0.25045     0.18039     0.14531     0.12753    
 0.11394     0.99305E-01 0.83766E-01 0.68933E-01 0.55542E-01 0.43498E-01 0.32889E-01 0.24336E-01 0.18482E-01 0.15583E-01
 0.15686E-01 0.18669E-01 0.23619E-01 0.28496E-01 0.31207E-01 0.31490E-01 0.31595E-01 0.34879E-01 0.43655E-01 0.58102E-01
 0.76671E-01 0.97258E-01 0.11851     0.14082     0.16615     0.19636     0.23102     0.26700     0.30083     0.33209    
 0.36497     0.40589     0.45813     0.51713     0.57057     0.60437     0.29574     0.29189     0.28990     0.28929    
 0.28548     0.27139     0.24141     0.19529     0.13924     0.84006E-01 0.41175E-01 0.19060E-01 0.19724E-01 0.38297E-01
 0.65147E-01 0.89932E-01 0.10556     0.11014     0.10606     0.97128E-01 0.85858E-01 0.72917E-01 0.58587E-01 0.44182E-01
 0.31811E-01 0.23036E-01 0.18087E-01 0.16135E-01 0.15917E-01 0.16192E-01 0.16252E-01 0.16289E-01 0.16980E-01 0.18519E-01
 0.20386E-01 0.22345E-01 0.25250E-01 0.30320E-01 0.37742E-01 0.46545E-01 0.55954E-01 0.66506E-01 0.79743E-01 0.97155E-01
 0.11936     0.14554     0.17320     0.19897     0.22058     0.23836     0.25432     0.26973     0.28371     0.29405    
 0.29915     0.29911     0.10821     0.11347     0.13064     0.15178     0.16436     0.15259     0.10147     0.40502E-02
 -.13071     -.27484     -.38812     -.43430     -.39895     -.29755     -.16769     -.50153E-01 0.29284E-01 0.66823E-01
 0.74659E-01 0.68673E-01 0.59011E-01 0.48515E-01 0.36962E-01 0.25263E-01 0.15912E-01 0.10869E-01 0.10124E-01 0.12127E-01
 0.14849E-01 0.16464E-01 0.15960E-01 0.13771E-01 0.11545E-01 0.10882E-01 0.12358E-01 0.15835E-01 0.21114E-01 0.27690E-01
 0.34192E-01 0.39096E-01 0.42419E-01 0.46388E-01 0.54094E-01 0.67491E-01 0.86328E-01 0.10824     0.12967     0.14752    
 0.16103     0.17152     0.17972     0.18310     0.17725     0.16057     0.13762     0.11739     0.17075     0.17099    
 0.16984     0.16698     0.16330     0.16167     0.16620     0.17957     0.20028     0.22204     0.23620     0.23558    
 0.21777     0.18610     0.14795     0.11136     0.81916E-01 0.61511E-01 0.49030E-01 0.41684E-01 0.36253E-01 0.30217E-01
 0.22772E-01 0.15032E-01 0.90554E-02 0.63865E-02 0.71758E-02 0.10200E-01 0.13431E-01 0.14924E-01 0.13835E-01 0.10925E-01
 0.79978E-02 0.67354E-02 0.80195E-02 0.11993E-01 0.18119E-01 0.24944E-01 0.30373E-01 0.33003E-01 0.33502E-01 0.34565E-01
 0.39336E-01 0.49533E-01 0.64437E-01 0.81101E-01 0.95821E-01 0.10639     0.11366     0.12072     0.13014     0.14172    
 0.15298     0.16153     0.16675     0.16947     0.21199     0.20762     0.19161     0.16927     0.15081     0.15155    
 0.18822     0.27036     0.39042     0.52004     0.61793     0.64753     0.59519     0.47742     0.33216     0.19955    
 0.10453     0.51023E-01 0.28263E-01 0.21596E-01 0.20121E-01 0.18566E-01 0.15632E-01 0.11867E-01 0.84279E-02 0.64843E-02
 0.66904E-02 0.86469E-02 0.10886E-01 0.11746E-01 0.10583E-01 0.81958E-02 0.60746E-02 0.53870E-02 0.66877E-02 0.10125E-01
 0.15313E-01 0.20952E-01 0.25188E-01 0.26941E-01 0.27022E-01 0.27831E-01 0.31812E-01 0.39881E-01 0.50791E-01 0.61742E-01
 0.70031E-01 0.74919E-01 0.78349E-01 0.83814E-01 0.94321E-01 0.11110     0.13352     0.15928     0.18433     0.20347    
 0.60872E-01 0.62794E-01 0.63908E-01 0.61635E-01 0.55514E-01 0.46596E-01 0.35712E-01 0.22523E-01 0.63875E-02 -.11782E-01
 -.28553E-01 -.39065E-01 -.39603E-01 -.29989E-01 -.14182E-01 0.14757E-02 0.11599E-01 0.14622E-01 0.13056E-01 0.10909E-01
 0.10526E-01 0.11505E-01 0.12132E-01 0.11358E-01 0.94959E-02 0.76037E-02 0.66211E-02 0.68238E-02 0.76499E-02 0.80627E-02
 0.74367E-02 0.61961E-02 0.54063E-02 0.57565E-02 0.71903E-02 0.94604E-02 0.12519E-01 0.16071E-01 0.19187E-01 0.21022E-01
 0.22009E-01 0.23886E-01 0.28225E-01 0.34953E-01 0.42317E-01 0.48202E-01 0.51636E-01 0.53490E-01 0.55925E-01 0.60701E-01
 0.67371E-01 0.73064E-01 0.74569E-01 0.71156E-01 0.65446E-01 0.61340E-01 -.52023E-01 -.44237E-01 -.28550E-01 -.13917E-01
 -.89977E-02 -.23504E-01 -.69032E-01 -.15426     -.27521     -.40839     -.51501     -.55727     -.51771     -.40926    
 -.26913     -.14011     -.50771E-01 -.62022E-02 0.69468E-02 0.70494E-02 0.62241E-02 0.76168E-02 0.95123E-02 0.10134E-01
 0.92894E-02 0.76531E-02 0.60004E-02 0.49689E-02 0.47651E-02 0.49692E-02 0.50536E-02 0.51335E-02 0.57999E-02 0.71584E-02
 0.85394E-02 0.94197E-02 0.10199E-01 0.11628E-01 0.13756E-01 0.16036E-01 0.18419E-01 0.21709E-01 0.26483E-01 0.32005E-01
 0.36592E-01 0.39107E-01 0.40016E-01 0.41150E-01 0.44341E-01 0.49538E-01 0.53405E-01 0.50009E-01 0.34472E-01 0.76015E-02
 -.22605E-01 -.44968E-01 0.50423E-01 0.53648E-01 0.52798E-01 0.46082E-01 0.36301E-01 0.28946E-01 0.27971E-01 0.33051E-01
 0.40359E-01 0.45446E-01 0.45653E-01 0.40992E-01 0.33769E-01 0.27132E-01 0.22954E-01 0.20575E-01 0.17861E-01 0.13686E-01
 0.91070E-02 0.60538E-02 0.53193E-02 0.61490E-02 0.73273E-02 0.80427E-02 0.78783E-02 0.67315E-02 0.50332E-02 0.36072E-02
 0.29750E-02 0.30263E-02 0.35554E-02 0.47470E-02 0.67155E-02 0.87965E-02 0.98794E-02 0.95868E-02 0.87817E-02 0.87457E-02
 0.10110E-01 0.12742E-01 0.16353E-01 0.20779E-01 0.25620E-01 0.29961E-01 0.32767E-01 0.33776E-01 0.34041E-01 0.35498E-01
 0.39621E-01 0.46084E-01 0.52585E-01 0.56221E-01 0.55525E-01 0.51704E-01 0.48015E-01 0.47493E-01 0.15064     0.14906    
 0.13266     0.10637     0.83167E-01 0.81984E-01 0.12092     0.20776     0.33210     0.46405     0.56261     0.59264    
 0.54222     0.42925     0.29178     0.16819     0.80835E-01 0.32112E-01 0.11553E-01 0.58524E-02 0.54203E-02 0.59078E-02
 0.64292E-02 0.69762E-02 0.70696E-02 0.61734E-02 0.45576E-02 0.31135E-02 0.24018E-02 0.23761E-02 0.30297E-02 0.46696E-02
 0.71930E-02 0.95401E-02 0.10440E-01 0.96778E-02 0.83276E-02 0.77856E-02 0.88473E-02 0.11596E-01 0.15700E-01 0.20561E-01
 0.25346E-01 0.29152E-01 0.31343E-01 0.32008E-01 0.32279E-01 0.33979E-01 0.38448E-01 0.45627E-01 0.54664E-01 0.65547E-01
 0.79651E-01 0.98080E-01 0.11939     0.13898     0.50423E-01 0.53648E-01 0.52798E-01 0.46082E-01 0.36301E-01 0.28946E-01
 0.27971E-01 0.33051E-01 0.40359E-01 0.45446E-01 0.45653E-01 0.40992E-01 0.33769E-01 0.27132E-01 0.22954E-01 0.20575E-01
 0.17861E-01 0.13686E-01 0.91070E-02 0.60538E-02 0.53193E-02 0.61490E-02 0.73273E-02 0.80427E-02 0.78783E-02 0.67315E-02
 0.50332E-02 0.36072E-02 0.29750E-02 0.30263E-02 0.35554E-02 0.47470E-02 0.67155E-02 0.87965E-02 0.98794E-02 0.95868E-02
 0.87817E-02 0.87457E-02 0.10110E-01 0.12742E-01 0.16353E-01 0.20779E-01 0.25620E-01 0.29961E-01 0.32767E-01 0.33776E-01
 0.34041E-01 0.35498E-01 0.39621E-01 0.46084E-01 0.52585E-01 0.56221E-01 0.55525E-01 0.51704E-01 0.48015E-01 0.47493E-01
 -.52023E-01 -.44237E-01 -.28550E-01 -.13917E-01 -.89977E-02 -.23504E-01 -.69032E-01 -.15426     -.27521     -.40839    
 -.51501     -.55727     -.51771     -.40926     -.26913     -.14011     -.50771E-01 -.62022E-02 0.69468E-02 0.70494E-02
 0.62241E-02 0.76168E-02 0.95123E-02 0.10134E-01 0.92894E-02 0.76531E-02 0.60004E-02 0.49689E-02 0.47651E-02 0.49692E-02
 0.50536E-02 0.51335E-02 0.57999E-02 0.71584E-02 0.85394E-02 0.94197E-02 0.10199E-01 0.11628E-01 0.13756E-01 0.16036E-01
 0.18419E-01 0.21709E-01 0.26483E-01 0.32005E-01 0.36592E-01 0.39107E-01 0.40016E-01 0.41150E-01 0.44341E-01 0.49538E-01
 0.53405E-01 0.50009E-01 0.34472E-01 0.76015E-02 -.22605E-01 -.44968E-01 0.60872E-01 0.62794E-01 0.63908E-01 0.61635E-01
 0.55514E-01 0.46596E-01 0.35712E-01 0.22523E-01 0.63875E-02 -.11782E-01 -.28553E-01 -.39065E-01 -.39603E-01 -.29989E-01
 -.14182E-01 0.14757E-02 0.11599E-01 0.14622E-01 0.13056E-01 0.10909E-01 0.10526E-01 0.11505E-01 0.12132E-01 0.11358E-01
 0.94959E-02 0.76037E-02 0.66211E-02 0.68238E-02 0.76499E-02 0.80627E-02 0.74367E-02 0.61961E-02 0.54063E-02 0.57565E-02
 0.71903E-02 0.94604E-02 0.12519E-01 0.16071E-01 0.19187E-01 0.21022E-01 0.22009E-01 0.23886E-01 0.28225E-01 0.34953E-01
 0.42317E-01 0.48202E-01 0.51636E-01 0.53490E-01 0.55925E-01 0.60701E-01 0.67371E-01 0.73064E-01 0.74569E-01 0.71156E-01
 0.65446E-01 0.61340E-01 0.21199     0.20762     0.19161     0.16927     0.15081     0.15155     0.18822     0.27036    
 0.39042     0.52004     0.61793     0.64753     0.59519     0.47742     0.33216     0.19955     0.10453     0.51023E-01
 0.28263E-01 0.21596E-01 0.20121E-01 0.18566E-01 0.15632E-01 0.11867E-01 0.84279E-02 0.64843E-02 0.66904E-02 0.86469E-02
 0.10886E-01 0.11746E-01 0.10583E-01 0.81958E-02 0.60746E-02 0.53870E-02 0.66877E-02 0.10125E-01 0.15313E-01 0.20952E-01
 0.25188E-01 0.26941E-01 0.27022E-01 0.27831E-01 0.31812E-01 0.39881E-01 0.50791E-01 0.61742E-01 0.70031E-01 0.74919E-01
 0.78349E-01 0.83814E-01 0.94321E-01 0.11110     0.13352     0.15928     0.18433     0.20347     0.17075     0.17099    
 0.16984     0.16698     0.16330     0.16167     0.16620     0.17957     0.20028     0.22204     0.23620     0.23558    
 0.21777     0.18610     0.14795     0.11136     0.81916E-01 0.61511E-01 0.49030E-01 0.41684E-01 0.36253E-01 0.30217E-01
 0.22772E-01 0.15032E-01 0.90554E-02 0.63865E-02 0.71758E-02 0.10200E-01 0.13431E-01 0.14924E-01 0.13835E-01 0.10925E-01
 0.79978E-02 0.67354E-02 0.80195E-02 0.11993E-01 0.18119E-01 0.24944E-01 0.30373E-01 0.33003E-01 0.33502E-01 0.34565E-01
 0.39336E-01 0.49533E-01 0.64437E-01 0.81101E-01 0.95821E-01 0.10639     0.11366     0.12072     0.13014     0.14172    
 0.15298     0.16153     0.16675     0.16947     0.10821     0.11347     0.13064     0.15178     0.16436     0.15259    
 0.10147     0.40502E-02 -.13071     -.27484     -.38812     -.43430     -.39895     -.29755     -.16769     -.50153E-01
 0.29284E-01 0.66823E-01 0.74659E-01 0.68673E-01 0.59011E-01 0.48515E-01 0.36962E-01 0.25263E-01 0.15912E-01 0.10869E-01
 0.10124E-01 0.12127E-01 0.14849E-01 0.16464E-01 0.15960E-01 0.13771E-01 0.11545E-01 0.10882E-01 0.12358E-01 0.15835E-01
 0.21114E-01 0.27690E-01 0.34192E-01 0.39096E-01 0.42419E-01 0.46388E-01 0.54094E-01 0.67491E-01 0.86328E-01 0.10824    
 0.12967     0.14752     0.16103     0.17152     0.17972     0.18310     0.17725     0.16057     0.13762     0.11739    
 0.29574     0.29189     0.28990     0.28929     0.28548     0.27139     0.24141     0.19529     0.13924     0.84006E-01
 0.41175E-01 0.19060E-01 0.19724E-01 0.38297E-01 0.65147E-01 0.89932E-01 0.10556     0.11014     0.10606     0.97128E-01
 0.85858E-01 0.72917E-01 0.58587E-01 0.44182E-01 0.31811E-01 0.23036E-01 0.18087E-01 0.16135E-01 0.15917E-01 0.16192E-01
 0.16252E-01 0.16289E-01 0.16980E-01 0.18519E-01 0.20386E-01 0.22345E-01 0.25250E-01 0.30320E-01 0.37742E-01 0.46545E-01
 0.55954E-01 0.66506E-01 0.79743E-01 0.97155E-01 0.11936     0.14554     0.17320     0.19897     0.22058     0.23836    
 0.25432     0.26973     0.28371     0.29405     0.29915     0.29911     0.61061     0.59166     0.55754     0.52029    
 0.49107     0.48134     0.50390     0.56811     0.67011     0.78571     0.87443     0.89624     0.83221     0.69572    
 0.52596     0.36763     0.25045     0.18039     0.14531     0.12753     0.11394     0.99305E-01 0.83766E-01 0.68933E-01
 0.55542E-01 0.43498E-01 0.32889E-01 0.24336E-01 0.18482E-01 0.15583E-01 0.15686E-01 0.18669E-01 0.23619E-01 0.28496E-01
 0.31207E-01 0.31490E-01 0.31595E-01 0.34879E-01 0.43655E-01 0.58102E-01 0.76671E-01 0.97258E-01 0.11851     0.14082    
 0.16615     0.19636     0.23102     0.26700     0.30083     0.33209     0.36497     0.40589     0.45813     0.51713    
 0.57057     0.60437     0.79860     0.77616     0.74489     0.71554     0.69393     0.68254     0.68344     0.69839    
 0.72578     0.75723     0.77741     0.76888     0.72041     0.63394     0.52502     0.41547     0.32301     0.25480    
 0.20796     0.17490     0.14896     0.12711     0.10916     0.94997E-01 0.82752E-01 0.69548E-01 0.54085E-01 0.38057E-01
 0.24910E-01 0.17461E-01 0.16650E-01 0.21622E-01 0.29953E-01 0.37960E-01 0.42230E-01 0.42079E-01 0.40709E-01 0.43575E-01
 0.55200E-01 0.76843E-01 0.10616     0.13856     0.16983     0.19905     0.22967     0.26703     0.31388     0.36782    
 0.42356     0.47787     0.53248     0.59175     0.65689     0.72150     0.77306     0.79987      1.0161      1.0016    
 0.99630      1.0021      1.0075     0.99147     0.93316     0.82308     0.67135     0.50819     0.37345     0.29851    
 0.29072     0.33083     0.38464     0.42045     0.42130     0.38753     0.33143     0.26893     0.21271     0.16938    
 0.14012     0.12219     0.10996     0.96804E-01 0.78692E-01 0.57010E-01 0.37322E-01 0.24953E-01 0.21731E-01 0.26163E-01
 0.35086E-01 0.44546E-01 0.50766E-01 0.52487E-01 0.52933E-01 0.58606E-01 0.75322E-01 0.10488     0.14448     0.18847    
 0.23144     0.27198     0.31504     0.36934     0.44084     0.52756     0.62115     0.71309     0.79901     0.87728    
 0.94486     0.99565      1.0236      1.0279      1.6258      1.6215      1.6233      1.6342      1.6426      1.6303    
  1.5836      1.5006      1.3918      1.2755      1.1702      1.0862      1.0217     0.96641     0.90900     0.84185    
 0.76106     0.66512     0.55630     0.44293     0.33791     0.25326     0.19469     0.15971     0.13946     0.12316    
 0.10338     0.79535E-01 0.56595E-01 0.40280E-01 0.33037E-01 0.33816E-01 0.39957E-01 0.48384E-01 0.56225E-01 0.62383E-01
 0.69256E-01 0.82137E-01 0.10611     0.14311     0.19124     0.24609     0.30356     0.36366     0.43290     0.52180    
 0.63745     0.77693     0.92811      1.0770      1.2150      1.3390      1.4473      1.5345      1.5936      1.6217    
  2.6407      2.6516      2.6470      2.6352      2.6185      2.6021      2.5986      2.6203      2.6660      2.7130    
  2.7209      2.6482      2.4726      2.2056      1.8905      1.5806      1.3119      1.0895     0.89704     0.71806    
 0.55092     0.40695     0.29799     0.22598     0.18194     0.15262     0.12785     0.10379     0.81520E-01 0.63671E-01
 0.51966E-01 0.46637E-01 0.46970E-01 0.51981E-01 0.60950E-01 0.73833E-01 0.91500E-01 0.11566     0.14854     0.19220    
 0.24769     0.31484     0.39365     0.48699     0.60216     0.74848     0.93108      1.1450      1.3754      1.6044    
  1.8208      2.0223      2.2097      2.3771      2.5107      2.5983      3.9250      3.9542      3.9483      3.9144    
  3.8596      3.7970      3.7432      3.7072      3.6826      3.6482      3.5754      3.4368      3.2163      2.9197    
  2.5761      2.2262      1.9020      1.6129      1.3489      1.0976     0.85851     0.64440     0.47022     0.34203    
 0.25439     0.19604     0.15665     0.12927     0.10915     0.92745E-01 0.78200E-01 0.66012E-01 0.58502E-01 0.58641E-01
 0.68919E-01 0.90232E-01 0.12118     0.15898     0.20223     0.25328     0.31818     0.40423     0.51783     0.66427    
 0.84871      1.0762      1.3487      1.6608      1.9979      2.3398      2.6701      2.9799      3.2642      3.5132    
  3.7116      3.8483      5.8337      5.8538      5.8100      5.7203      5.6003      5.4629      5.3136      5.1472    
  4.9545      4.7340      4.4957      4.2500      3.9954      3.7184      3.4068      3.0613      2.6937      2.3185    
  1.9469      1.5890      1.2569     0.96343     0.71758     0.52189     0.37365     0.26777     0.19838     0.15808    
 0.13681     0.12316     0.10845     0.90858E-01 0.75630E-01 0.71097E-01 0.83452E-01 0.11374     0.15798     0.20981    
 0.26529     0.32785     0.40994     0.52856     0.69718     0.92105      1.1995      1.5324      1.9218      2.3674    
  2.8593      3.3768      3.8949      4.3901      4.8418      5.2285      5.5291      5.7304      9.0935      9.0457    
  8.8812      8.6700      8.4706      8.3193      8.2258      8.1719      8.1193      8.0240      7.8464      7.5526    
  7.1153      6.5262      5.8115      5.0286      4.2434      3.5050      2.8395      2.2587      1.7680      1.3645    
  1.0363     0.76781     0.54953     0.38063     0.26361     0.19576     0.16466     0.15096     0.13735     0.11748    
 0.97805E-01 0.90797E-01 0.10571     0.14383     0.19954     0.26474     0.33515     0.41734     0.53125     0.70294    