unknown system                          
   1.00000000000000     
     6.000000    0.000000    0.000000
     0.000000    6.000000    0.000000
     0.000000    0.000000    6.000000
   C    O 
     1     1
Direct
  0.000000  0.000000  0.000000
  0.200000  0.000000  0.000000
 
   56   56   56
 0.25452545216E+03 0.27068491933E+03 0.36461389516E+03 0.48399907534E+03 0.59377567546E+03
 0.69969994130E+03 0.83509465795E+03 0.10167868405E+04 0.12202609703E+04 0.14105713680E+04
 0.15709837987E+04 0.16942401665E+04 0.17446299169E+04 0.16568315816E+04 0.13959852391E+04
 0.10157296757E+04 0.63737794447E+03 0.36122112274E+03 0.20119276908E+03 0.11248389231E+03
 0.63429711103E+02 0.35986530237E+02 0.21427299561E+02 0.13477058617E+02 0.76924525033E+01
 0.36205702867E+01 0.22522229286E+01 0.23340900721E+01 0.16783325291E+01 0.41685229011E+00
 0.14685060081E+00 0.79711893773E+00 0.86811351561E+00 0.21171594398E+00 0.14004491664E+00
 0.90522310322E+00 0.13206857335E+01 0.10873530460E+01 0.14132539809E+01 0.28422698110E+01
 0.44178553698E+01 0.57862475167E+01 0.83932185765E+01 0.13646546430E+02 0.21569579884E+02
 0.32568811802E+02 0.49234647125E+02 0.75394737603E+02 0.11520467103E+03 0.17403952586E+03
 0.25563998817E+03 0.35541560349E+03 0.44607981114E+03 0.47893278158E+03 0.42713811046E+03
 0.32582380861E+03 0.26015756778E+03 0.27401255163E+03 0.35894630784E+03 0.46757064507E+03
 0.56853886328E+03 0.66774193082E+03 0.79496783990E+03 0.96764650077E+03 0.11653817264E+04
 0.13543616280E+04 0.15141336884E+04 0.16322906927E+04 0.16731183147E+04 0.15784374232E+04
 0.13216971351E+04 0.95792951934E+03 0.60135412353E+03 0.34298297303E+03 0.19249405263E+03
 0.10825484444E+03 0.61461227607E+02 0.35095481866E+02 0.20948960495E+02 0.13145674540E+02
 0.75188257051E+01 0.35940551953E+01 0.22410507335E+01 0.22680133598E+01 0.16287432875E+01
 0.43357874015E+00 0.16344163965E+00 0.76017727462E+00 0.83128060434E+00 0.22664794508E+00
 0.15972120174E+00 0.87508659524E+00 0.12776009234E+01 0.10835526594E+01 0.14149696110E+01
 0.27922031028E+01 0.43369259309E+01 0.57174305142E+01 0.82892251195E+01 0.13407603240E+02
 0.21148732843E+02 0.31921117692E+02 0.48158121088E+02 0.73473947322E+02 0.11181413233E+03
 0.16826894139E+03 0.24636016227E+03 0.34143698151E+03 0.42839557480E+03 0.46218804332E+03
 0.41740305545E+03 0.32570085871E+03 0.27099847251E+03 0.27917809830E+03 0.34130288287E+03
 0.42244376617E+03 0.50051741619E+03 0.58189906110E+03 0.68720699062E+03 0.83410251770E+03
 0.10121386390E+04 0.11913084309E+04 0.13439097663E+04 0.14467274893E+04 0.14651902190E+04
 0.13586473988E+04 0.11195783958E+04 0.80410342420E+03 0.50682226136E+03 0.29505973677E+03
 0.16899684949E+03 0.96742734379E+02 0.56013013600E+02 0.32563442188E+02 0.19565884554E+02
 0.12199033413E+02 0.70223497653E+01 0.35051688795E+01 0.22027677485E+01 0.20893523494E+01
 0.14946201910E+01 0.47549207025E+00 0.20756593530E+00 0.66438413789E+00 0.73444666778E+00
 0.26558489348E+00 0.21270171478E+00 0.79722060227E+00 0.11630349959E+01 0.10701270917E+01
 0.14156811420E+01 0.26541582258E+01 0.41103415161E+01 0.55128299867E+01 0.79787965240E+01
 0.12716539028E+02 0.19934049847E+02 0.30047783499E+02 0.45079689189E+02 0.68069562235E+02
 0.10238730875E+03 0.15234497976E+03 0.22097474940E+03 0.30365885757E+03 0.38063546227E+03
 0.41625423498E+03 0.38896541870E+03 0.32170959879E+03 0.27309355189E+03 0.27506660822E+03
 0.31034309501E+03 0.35862358743E+03 0.40832644091E+03 0.46612589638E+03 0.54301846333E+03
 0.65288925865E+03 0.79521120745E+03 0.94696332205E+03 0.10773264619E+04 0.11559952087E+04
 0.11526972510E+04 0.10460672399E+04 0.84593998696E+03 0.60354624407E+03 0.38621433629E+03
 0.23300161922E+03 0.13718509481E+03 0.80885522517E+02 0.48252419983E+02 0.28774019214E+02
 0.17435661633E+02 0.10775087454E+02 0.62743976050E+01 0.33351446437E+01 0.21264519837E+01
 0.18460067739E+01 0.13114979732E+01 0.52129384843E+00 0.26373201175E+00 0.54521390141E+00
 0.61042208685E+00 0.31325324282E+00 0.28228967412E+00 0.70046821107E+00 0.10121489180E+01
 0.10416122698E+01 0.14032083415E+01 0.24566622769E+01 0.37783566583E+01 0.51796225203E+01
 0.74709072119E+01 0.11647901511E+02 0.18065471294E+02 0.27155457920E+02 0.40419151970E+02
 0.60128530937E+02 0.88854088877E+02 0.12983476483E+03 0.18547909873E+03 0.25195741864E+03
 0.31531978072E+03 0.35140323172E+03 0.34389943746E+03 0.30564931529E+03 0.25445564339E+03
 0.25224300153E+03 0.26598404252E+03 0.28715420412E+03 0.31205761761E+03 0.34642344897E+03
 0.39681996535E+03 0.46899264230E+03 0.56626240709E+03 0.67469277518E+03 0.76835527560E+03
 0.81906439777E+03 0.80426866902E+03 0.71648939600E+03 0.57264389623E+03 0.41137008043E+03
 0.27213472856E+03 0.17106120096E+03 0.10436639926E+03 0.64022844971E+02 0.39572501114E+02
 0.24248784840E+02 0.14812695948E+02 0.90802888545E+01 0.53826268463E+01 0.30754173816E+01
 0.20027878419E+01 0.15892996426E+01 0.11169861563E+01 0.54627208028E+00 0.31173611346E+00
 0.43742855076E+00 0.49274773202E+00 0.35114574727E+00 0.34604337194E+00 0.61116093063E+00
 0.86089893391E+00 0.99144826704E+00 0.13618157359E+01 0.22278722021E+01 0.33867417999E+01
 0.47342718599E+01 0.67915704861E+01 0.10315763967E+02 0.15758974971E+02 0.23569441843E+02
 0.34770824551E+02 0.50869767489E+02 0.73590157494E+02 0.10504761938E+03 0.14687766965E+03
 0.19678016906E+03 0.24557341550E+03 0.27889751030E+03 0.28581219617E+03 0.27124204786E+03
 0.21381686278E+03 0.21029397065E+03 0.21204480985E+03 0.21726083504E+03 0.22610586746E+03
 0.24259090812E+03 0.27188023809E+03 0.31583524191E+03 0.37284084168E+03 0.43651368072E+03
 0.49096367239E+03 0.51716099224E+03 0.50150679370E+03 0.44307791234E+03 0.35597707087E+03
 0.26281855357E+03 0.18129853415E+03 0.11846791381E+03 0.75802633090E+02 0.48633992808E+02
 0.31118733232E+02 0.19519456341E+02 0.12007344770E+02 0.73416222312E+01 0.44654111800E+01
 0.27406634700E+01 0.18307813460E+01 0.13516938405E+01 0.93509903418E+00 0.53428321230E+00
 0.33514682376E+00 0.35838484079E+00 0.40027955228E+00 0.36525274155E+00 0.38397109263E+00
 0.53961028165E+00 0.73023253015E+00 0.91621091827E+00 0.12797660351E+01 0.19841854189E+01
 0.29715097150E+01 0.42057737317E+01 0.59902323401E+01 0.88561183952E+01 0.13270329205E+02
 0.19683145406E+02 0.28772953163E+02 0.41431917006E+02 0.58645447964E+02 0.81561737668E+02
 0.11105787871E+03 0.14594245716E+03 0.18104976084E+03 0.20828214453E+03 0.22112722435E+03
 0.22024328008E+03 0.16175125115E+03 0.15892658102E+03 0.15681729267E+03 0.15599986846E+03
 0.15750782641E+03 0.16405775360E+03 0.17891888135E+03 0.20332052312E+03 0.23471624635E+03
 0.26717205748E+03 0.29310027012E+03 0.30345904605E+03 0.29196646608E+03 0.25920327845E+03
 0.21259983496E+03 0.16185960190E+03 0.11569600310E+03 0.79410534819E+02 0.53564816015E+02
 0.35842224768E+02 0.23569143636E+02 0.15028621973E+02 0.93179941693E+01 0.57469287695E+01
 0.36187765176E+01 0.23647985203E+01 0.16191073441E+01 0.11403890493E+01 0.77304392776E+00
 0.48539949140E+00 0.32877748897E+00 0.30605722427E+00 0.33414869900E+00 0.35167510360E+00
 0.38662869547E+00 0.48080481190E+00 0.62357704591E+00 0.81957347600E+00 0.11569594343E+01
 0.17318019418E+01 0.25552174244E+01 0.36339305660E+01 0.51345906772E+01 0.74016484842E+01
 0.10842296523E+02 0.15878742689E+02 0.22981933020E+02 0.32639933431E+02 0.45303197158E+02
 0.61422386311E+02 0.81285836614E+02 0.10421832313E+03 0.12760342941E+03 0.14717384969E+03
 0.15922939489E+03 0.16313945526E+03 0.11298962663E+03 0.11133656513E+03 0.10928867374E+03
 0.10767315305E+03 0.10736721576E+03 0.10986052495E+03 0.11676240675E+03 0.12860865433E+03
 0.14400584245E+03 0.15967736280E+03 0.17126501894E+03 0.17459472789E+03 0.16717573036E+03
 0.14939812698E+03 0.12459984837E+03 0.97666116125E+02 0.72926091557E+02 0.52697872298E+02
 0.37239517757E+02 0.25715248189E+02 0.17199939772E+02 0.11087291941E+02 0.69680063337E+01
 0.44049550775E+01 0.28941620041E+01 0.19846555896E+01 0.13824553147E+01 0.94737406555E+00
 0.62887045977E+00 0.41414497497E+00 0.29977028848E+00 0.26907522352E+00 0.28569377230E+00
 0.31684758945E+00 0.35799043810E+00 0.42514682449E+00 0.53511706168E+00 0.71254578353E+00
 0.10070947567E+01 0.14761973919E+01 0.21522816630E+01 0.30610077155E+01 0.42932941491E+01
 0.60554538301E+01 0.86542920754E+01 0.12448824756E+02 0.17791927508E+02 0.24954700962E+02
 0.34077599933E+02 0.45200574374E+02 0.58249632197E+02 0.72755156989E+02 0.87415503950E+02
 0.10011162257E+03 0.10880233089E+03 0.11276200748E+03 0.75509733563E+02 0.74598368255E+02
 0.73351564527E+02 0.72444263979E+02 0.72355421337E+02 0.73633869909E+02 0.76814588375E+02
 0.81997370961E+02 0.88497208283E+02 0.94855595544E+02 0.99174925902E+02 0.99643242835E+02
 0.95164679392E+02 0.85889400491E+02 0.73265685471E+02 0.59429077525E+02 0.46275440635E+02
 0.34858662262E+02 0.25433882111E+02 0.17887206417E+02 0.12075831534E+02 0.78748409838E+01
 0.50750998378E+01 0.33433802786E+01 0.22987214724E+01 0.16254627499E+01 0.11371056505E+01
 0.76515014532E+00 0.50093470428E+00 0.34001653195E+00 0.26172433481E+00 0.23809166753E+00
 0.24628376632E+00 0.27222626088E+00 0.31102127942E+00 0.36815928819E+00 0.45916470953E+00
 0.60882295179E+00 0.85177093918E+00 0.12285294490E+01 0.17749081510E+01 0.25208887863E+01
 0.35164978337E+01 0.48746051803E+01 0.67967150474E+01 0.95535352942E+01 0.13415318046E+02
 0.18556338030E+02 0.24989850596E+02 0.32580616066E+02 0.41091108545E+02 0.50138242338E+02
 0.59040423806E+02 0.66773010889E+02 0.72285024148E+02 0.75071658926E+02 0.49452276415E+02
 0.48902591614E+02 0.48228869913E+02 0.47924316622E+02 0.48206156294E+02 0.49134147369E+02
 0.50699997872E+02 0.52787832743E+02 0.55093783076E+02 0.57109998632E+02 0.58184930428E+02
 0.57649988853E+02 0.55030159459E+02 0.50284408902E+02 0.43897771041E+02 0.36693165539E+02
 0.29475611397E+02 0.22785543552E+02 0.16905882448E+02 0.12000378070E+02 0.81792741551E+01
 0.54479723682E+01 0.36549796468E+01 0.25342024045E+01 0.18127694650E+01 0.12980132144E+01
 0.89897415445E+00 0.59579980003E+00 0.39162622371E+00 0.27754098046E+00 0.22668207986E+00
 0.21013310189E+00 0.21157067470E+00 0.22736812663E+00 0.25944420409E+00 0.31210748878E+00
 0.39353058773E+00 0.51824694064E+00 0.71017547197E+00 0.10032732379E+01 0.14343251067E+01
 0.20330611347E+01 0.28272974135E+01 0.38713060322E+01 0.52786680993E+01 0.72261757082E+01
 0.99086257889E+01 0.13456743501E+02 0.17863778467E+02 0.22971911254E+02 0.28520980592E+02
 0.34192234469E+02 0.39586708185E+02 0.44193257815E+02 0.47485626546E+02 0.49178755729E+02
 0.32422331079E+02 0.32040288786E+02 0.31590911564E+02 0.31430026829E+02 0.31694834170E+02
 0.32333519600E+02 0.33196991686E+02 0.34111479080E+02 0.34909588298E+02 0.35425388687E+02
 0.35464654915E+02 0.34790375123E+02 0.33179156795E+02 0.30542431805E+02 0.27016009378E+02
 0.22927135431E+02 0.18664378845E+02 0.14563803315E+02 0.10879216478E+02 0.77963475590E+01
 0.54219975198E+01 0.37478022639E+01 0.26454829974E+01 0.19234303893E+01 0.14098311998E+01
 0.10056034200E+01 0.68313927088E+00 0.44894239973E+00 0.30477402217E+00 0.23185078649E+00
 0.20005865928E+00 0.18566865686E+00 0.18010527860E+00 0.18645554415E+00 0.21170544611E+00
 0.26125403848E+00 0.33735887275E+00 0.44309875316E+00 0.59141043038E+00 0.81084070614E+00
 0.11385487277E+01 0.16050368331E+01 0.22283988950E+01 0.30294914021E+01 0.40589832683E+01
 0.54130948267E+01 0.72166187677E+01 0.95690520101E+01 0.12479235653E+02 0.15835212030E+02
 0.19434226925E+02 0.23038287723E+02 0.26394914963E+02 0.29222452034E+02 0.31237213283E+02
 0.32273707355E+02 0.21499349858E+02 0.21225646179E+02 0.20830947324E+02 0.20568623826E+02
 0.20576405141E+02 0.20864914080E+02 0.21354194005E+02 0.21919877758E+02 0.22427914695E+02
 0.22746796888E+02 0.22737113757E+02 0.22244793095E+02 0.21135169340E+02 0.19365398970E+02
 0.17037623417E+02 0.14377850553E+02 0.11652639374E+02 0.90892141394E+01 0.68445295558E+01
 0.50099158405E+01 0.36150216190E+01 0.26232988522E+01 0.19409730934E+01 0.14530534427E+01
 0.10696024711E+01 0.75167724766E+00 0.50207489522E+00 0.33345851784E+00 0.24124516868E+00
 0.20008357656E+00 0.18011242499E+00 0.16399605103E+00 0.15096164645E+00 0.14983830790E+00
 0.17032312876E+00 0.21719872992E+00 0.28840269841E+00 0.37937916369E+00 0.49389642742E+00
 0.65289935728E+00 0.89069017346E+00 0.12394080335E+01 0.17161019856E+01 0.23259237805E+01
 0.30812264003E+01 0.40219462845E+01 0.52167259173E+01 0.67329811059E+01 0.85891172334E+01
 0.10725085692E+02 0.13016746523E+02 0.15315210252E+02 0.17466488757E+02 0.19301547167E+02
 0.20642872117E+02 0.21368452255E+02 0.14172995631E+02 0.14012912298E+02 0.13699971730E+02
 0.13392180895E+02 0.13205411106E+02 0.13195422336E+02 0.13359754952E+02 0.13645107400E+02
 0.13958398097E+02 0.14181632322E+02 0.14186433538E+02 0.13851294333E+02 0.13092970714E+02
 0.11908540934E+02 0.10396999602E+02 0.87307416255E+01 0.70887971264E+01 0.55996324950E+01
 0.43277283997E+01 0.32927944383E+01 0.24880981372E+01 0.18841486658E+01 0.14314918931E+01
 0.10764138608E+01 0.78275136994E+00 0.54181230340E+00 0.36249843647E+00 0.25104120524E+00
 0.19700870797E+00 0.17538480165E+00 0.16096485309E+00 0.14211899653E+00 0.12341364346E+00
 0.11753432497E+00 0.13500037388E+00 0.17854493526E+00 0.24321542546E+00 0.32119564396E+00
 0.41058259829E+00 0.52408252581E+00 0.68956298160E+00 0.93843089600E+00 0.12896576086E+01
 0.17442965971E+01 0.22975800522E+01 0.29587554454E+01 0.37588588136E+01 0.47347808163E+01
 0.58993824370E+01 0.72224111670E+01 0.86376628552E+01 0.10064507461E+02 0.11417707165E+02
 0.12599478955E+02 0.13499686944E+02 0.14029387512E+02 0.90934757194E+01 0.90456928185E+01
 0.88811906165E+01 0.86700395205E+01 0.84705882222E+01 0.83193103891E+01 0.82258212310E+01
 0.81719390708E+01 0.81193289860E+01 0.80239764781E+01 0.78464400181E+01 0.75526400748E+01
 0.71152740246E+01 0.65262417098E+01 0.58114999928E+01 0.50286412906E+01 0.42434177741E+01
 0.35049895263E+01 0.28394515338E+01 0.22587356208E+01 0.17680125521E+01 0.13645464579E+01
 0.10362764000E+01 0.76780689752E+00 0.54952734418E+00 0.38062980277E+00 0.26360514581E+00
 0.19576110006E+00 0.16465874610E+00 0.15095898037E+00 0.13734940752E+00 0.11748283497E+00
 0.97805101906E-01 0.90797411351E-01 0.10571363636E+00 0.14383049847E+00 0.19954098990E+00
 0.26474138033E+00 0.33515482811E+00 0.41733956728E+00 0.53125008080E+00 0.70293628355E+00
 0.95076503408E+00 0.12775219671E+01 0.16767875775E+01 0.21471634743E+01 0.26989766502E+01
 0.33456413844E+01 0.40875737680E+01 0.49035045815E+01 0.57555433791E+01 0.66001483725E+01
 0.73927829846E+01 0.80845345823E+01 0.86222359951E+01 0.89624956639E+01 0.58337340563E+01
 0.58537747843E+01 0.58099886693E+01 0.57202592001E+01 0.56002650131E+01 0.54629210816E+01
 0.53136328504E+01 0.51472318521E+01 0.49544793785E+01 0.47339927330E+01 0.44956671233E+01
 0.42500307987E+01 0.39954282316E+01 0.37183742829E+01 0.34067882632E+01 0.30612625159E+01
 0.26937489587E+01 0.23185250794E+01 0.19468712874E+01 0.15889505523E+01 0.12568848515E+01
 0.96343280535E+00 0.71758345070E+00 0.52189417549E+00 0.37364976750E+00 0.26777201665E+00
 0.19838214970E+00 0.15807645340E+00 0.13681068467E+00 0.12315857341E+00 0.10845374426E+00
 0.90857709109E-01 0.75630492048E-01 0.71096863497E-01 0.83451901476E-01 0.11374384316E+00
 0.15797586869E+00 0.20980952649E+00 0.26528615498E+00 0.32784747696E+00 0.40994487393E+00
 0.52855776384E+00 0.69718470173E+00 0.92104630306E+00 0.11995475310E+01 0.15324151021E+01
 0.19218322160E+01 0.23674220174E+01 0.28592805454E+01 0.33768379993E+01 0.38948879271E+01
 0.43901216757E+01 0.48417777267E+01 0.52284893633E+01 0.55291475429E+01 0.57304134136E+01
 0.39250053001E+01 0.39541657620E+01 0.39482500597E+01 0.39144052439E+01 0.38595726343E+01
 0.37969804783E+01 0.37431764993E+01 0.37071966682E+01 0.36825585774E+01 0.36481899507E+01
 0.35754033409E+01 0.34367546525E+01 0.32163431001E+01 0.29197341305E+01 0.25760621647E+01
 0.22261507988E+01 0.19020078729E+01 0.16128994741E+01 0.13489020508E+01 0.10975695830E+01
 0.85851120051E+00 0.64440168098E+00 0.47022424314E+00 0.34203252051E+00 0.25438891096E+00
 0.19603586052E+00 0.15664904479E+00 0.12926854496E+00 0.10915243913E+00 0.92744529878E-01
 0.78199513205E-01 0.66011568014E-01 0.58501785441E-01 0.58641234119E-01 0.68919273274E-01
 0.90232014567E-01 0.12117779460E+00 0.15898329380E+00 0.20222827476E+00 0.25328308859E+00
 0.31818179327E+00 0.40423061076E+00 0.51783207498E+00 0.66426880499E+00 0.84871497727E+00
 0.10761734516E+01 0.13486806052E+01 0.16608491866E+01 0.19978849649E+01 0.23398390665E+01
 0.26700652692E+01 0.29798999946E+01 0.32642112702E+01 0.35131931017E+01 0.37116202044E+01
 0.38482899448E+01 0.26407253306E+01 0.26516071914E+01 0.26469752285E+01 0.26352000634E+01
 0.26184939351E+01 0.26021080544E+01 0.25985891899E+01 0.26203025848E+01 0.26660309864E+01
 0.27129601051E+01 0.27209206435E+01 0.26482414714E+01 0.24725686868E+01 0.22055830879E+01
 0.18905137314E+01 0.15806352147E+01 0.13119096424E+01 0.10895105824E+01 0.89704126327E+00
 0.71806495106E+00 0.55091982394E+00 0.40694753722E+00 0.29799405623E+00 0.22597667421E+00
 0.18193965762E+00 0.15262174929E+00 0.12785191849E+00 0.10379096372E+00 0.81520249205E-01
 0.63671174814E-01 0.51965806551E-01 0.46637379056E-01 0.46970048747E-01 0.51981434360E-01
 0.60949834078E-01 0.73833317283E-01 0.91499920337E-01 0.11566493663E+00 0.14854398755E+00
 0.19219653151E+00 0.24768617221E+00 0.31484132307E+00 0.39365264800E+00 0.48699066993E+00
 0.60215931333E+00 0.74848435349E+00 0.93108031014E+00 0.11450360066E+01 0.13754109526E+01
 0.16044454473E+01 0.18207581319E+01 0.20222695503E+01 0.22096727753E+01 0.23770805130E+01
 0.25106707475E+01 0.25983321233E+01 0.16257742840E+01 0.16214920636E+01 0.16233275307E+01
 0.16341631892E+01 0.16425812848E+01 0.16303231473E+01 0.15836208615E+01 0.15005748151E+01
 0.13917552646E+01 0.12755222365E+01 0.11702395239E+01 0.10861812907E+01 0.10216679674E+01
 0.96640947282E+00 0.90899615816E+00 0.84184687109E+00 0.76106088995E+00 0.66511784030E+00
 0.55630179162E+00 0.44292891791E+00 0.33790666104E+00 0.25325543530E+00 0.19468866993E+00
 0.15970822748E+00 0.13946284763E+00 0.12315596688E+00 0.10338173601E+00 0.79534577160E-01
 0.56595374249E-01 0.40279524751E-01 0.33036668235E-01 0.33816237737E-01 0.39956743620E-01
 0.48383997569E-01 0.56225368745E-01 0.62383392441E-01 0.69256397940E-01 0.82136518213E-01
 0.10610866840E+00 0.14311358667E+00 0.19124142271E+00 0.24608796561E+00 0.30356110439E+00
 0.36365853481E+00 0.43289684173E+00 0.52180125710E+00 0.63744628916E+00 0.77693090752E+00
 0.92811343245E+00 0.10770449503E+01 0.12149855971E+01 0.13390282110E+01 0.14472672703E+01
 0.15345263102E+01 0.15936167122E+01 0.16216679172E+01 0.10161131640E+01 0.10016308353E+01
 0.99629871434E+00 0.10020739789E+01 0.10074719143E+01 0.99146689725E+00 0.93316359706E+00
 0.82307515033E+00 0.67135187759E+00 0.50819429529E+00 0.37344976154E+00 0.29850594946E+00
 0.29072439055E+00 0.33082903489E+00 0.38464144366E+00 0.42044745172E+00 0.42129991139E+00
 0.38752921698E+00 0.33143037388E+00 0.26892601625E+00 0.21270556468E+00 0.16938038743E+00
 0.14012489556E+00 0.12219389335E+00 0.10996190632E+00 0.96803648648E-01 0.78692239016E-01
 0.57010302567E-01 0.37322061504E-01 0.24953472236E-01 0.21730574643E-01 0.26163026214E-01
 0.35086197550E-01 0.44545926156E-01 0.50766096087E-01 0.52486754924E-01 0.52933203294E-01
 0.58605679497E-01 0.75321507293E-01 0.10487591894E+00 0.14447881602E+00 0.18847493648E+00
 0.23143709847E+00 0.27198442636E+00 0.31503658407E+00 0.36934220642E+00 0.44083903981E+00
 0.52756319107E+00 0.62115176657E+00 0.71309163077E+00 0.79901035034E+00 0.87728463191E+00
 0.94486021520E+00 0.99564940183E+00 0.10235918836E+01 0.10279068872E+01 0.79860045214E+00
 0.77615897544E+00 0.74489169150E+00 0.71554423919E+00 0.69392826473E+00 0.68253753721E+00
 0.68343667707E+00 0.69838983104E+00 0.72578212647E+00 0.75722876139E+00 0.77740828396E+00
 0.76888328364E+00 0.72041022209E+00 0.63393936262E+00 0.52502124887E+00 0.41546597319E+00
 0.32300603943E+00 0.25479982288E+00 0.20796030579E+00 0.17490001269E+00 0.14895840244E+00
 0.12711012303E+00 0.10915530012E+00 0.94997346438E-01 0.82752193998E-01 0.69548184512E-01
 0.54085118631E-01 0.38056656412E-01 0.24909713824E-01 0.17461109221E-01 0.16649634170E-01
 0.21622375733E-01 0.29953106468E-01 0.37959750501E-01 0.42229756624E-01 0.42078890012E-01
 0.40709094123E-01 0.43575433285E-01 0.55199538005E-01 0.76843152831E-01 0.10615864265E+00
 0.13855798036E+00 0.16982997941E+00 0.19905221841E+00 0.22966794259E+00 0.26703399696E+00
 0.31388093581E+00 0.36781932973E+00 0.42355621789E+00 0.47786825839E+00 0.53247584964E+00
 0.59175390391E+00 0.65688954664E+00 0.72150267345E+00 0.77305764363E+00 0.79987474624E+00
 0.61061484989E+00 0.59166065794E+00 0.55753509744E+00 0.52029317043E+00 0.49106562144E+00
 0.48133939364E+00 0.50390323671E+00 0.56811095151E+00 0.67011075129E+00 0.78570844629E+00
 0.87443169046E+00 0.89623769895E+00 0.83220626197E+00 0.69572176523E+00 0.52595531566E+00
 0.36763301659E+00 0.25044960403E+00 0.18039006142E+00 0.14531483045E+00 0.12752653213E+00
 0.11394315665E+00 0.99304652517E-01 0.83766325613E-01 0.68933047738E-01 0.55541809388E-01
 0.43498163973E-01 0.32888619469E-01 0.24336018814E-01 0.18482109022E-01 0.15582606127E-01
 0.15685996585E-01 0.18668765516E-01 0.23619376238E-01 0.28495845685E-01 0.31206578672E-01
 0.31490183550E-01 0.31595188019E-01 0.34879303832E-01 0.43654726579E-01 0.58101825310E-01
 0.76671409972E-01 0.97258227168E-01 0.11851244441E+00 0.14081919209E+00 0.16615197221E+00
 0.19636087542E+00 0.23101818178E+00 0.26700465017E+00 0.30083025914E+00 0.33208619731E+00
 0.36496706820E+00 0.40589086877E+00 0.45813186439E+00 0.51712803341E+00 0.57057412382E+00
 0.60436831799E+00 0.29573649774E+00 0.29189427475E+00 0.28990396278E+00 0.28928908338E+00
 0.28548296861E+00 0.27138690296E+00 0.24140885957E+00 0.19528909603E+00 0.13923502641E+00
 0.84005924662E-01 0.41174628702E-01 0.19060308309E-01 0.19723629956E-01 0.38297060012E-01
 0.65147069826E-01 0.89932321228E-01 0.10556289692E+00 0.11013994605E+00 0.10606048938E+00
 0.97128442297E-01 0.85858078746E-01 0.72917178016E-01 0.58587101357E-01 0.44182487228E-01
 0.31810806108E-01 0.23036194200E-01 0.18086532055E-01 0.16135118497E-01 0.15916704627E-01
 0.16191905115E-01 0.16252098469E-01 0.16288977584E-01 0.16980290383E-01 0.18518561192E-01
 0.20385788112E-01 0.22345490056E-01 0.25250486965E-01 0.30320042355E-01 0.37742358877E-01
 0.46545251482E-01 0.55954413450E-01 0.66505942534E-01 0.79742515228E-01 0.97155154206E-01
 0.11935830684E+00 0.14553925437E+00 0.17320090225E+00 0.19896845735E+00 0.22058235624E+00
 0.23835746233E+00 0.25431658887E+00 0.26973408454E+00 0.28371008118E+00 0.29405189925E+00
 0.29915364651E+00 0.29910826617E+00 0.10820568229E+00 0.11347493518E+00 0.13063744111E+00
 0.15178088830E+00 0.16435933582E+00 0.15258730659E+00 0.10146854723E+00 0.40502420546E-02
 -.13070515492E+00 -.27483935836E+00 -.38812217100E+00 -.43430265721E+00 -.39895440658E+00
 -.29754891407E+00 -.16769133477E+00 -.50153486180E-01 0.29284344959E-01 0.66823091782E-01
 0.74658960002E-01 0.68673157684E-01 0.59011334650E-01 0.48515132311E-01 0.36961995490E-01
 0.25262570317E-01 0.15911504144E-01 0.10868859263E-01 0.10123951655E-01 0.12127222361E-01
 0.14849421508E-01 0.16463608367E-01 0.15960080845E-01 0.13771180788E-01 0.11545238691E-01
 0.10881864421E-01 0.12358161242E-01 0.15834507730E-01 0.21114406961E-01 0.27689908426E-01
 0.34192422865E-01 0.39096090423E-01 0.42419248829E-01 0.46387533113E-01 0.54094310533E-01
 0.67490997058E-01 0.86327740787E-01 0.10824429729E+00 0.12966631833E+00 0.14752215599E+00
 0.16102584755E+00 0.17152310007E+00 0.17971648713E+00 0.18309721822E+00 0.17724966672E+00
 0.16057284346E+00 0.13761904289E+00 0.11739412961E+00 0.17075412058E+00 0.17098789801E+00
 0.16983815435E+00 0.16698427105E+00 0.16329951362E+00 0.16167120610E+00 0.16620246986E+00
 0.17957354051E+00 0.20027653095E+00 0.22204269384E+00 0.23619969886E+00 0.23557837421E+00
 0.21776814431E+00 0.18610061823E+00 0.14795381652E+00 0.11136419920E+00 0.81915836790E-01
 0.61511437332E-01 0.49029547403E-01 0.41684031922E-01 0.36252748493E-01 0.30217390217E-01
 0.22771988054E-01 0.15031593059E-01 0.90554413959E-02 0.63864957487E-02 0.71757960519E-02
 0.10200006375E-01 0.13430775696E-01 0.14924156663E-01 0.13835467545E-01 0.10925430213E-01
 0.79978094428E-02 0.67353704644E-02 0.80194511477E-02 0.11992939677E-01 0.18119210808E-01
 0.24943523420E-01 0.30372727284E-01 0.33002949832E-01 0.33501548054E-01 0.34565095363E-01
 0.39336275934E-01 0.49533486472E-01 0.64436687392E-01 0.81101019318E-01 0.95821128481E-01
 0.10639163747E+00 0.11365932788E+00 0.12072450000E+00 0.13014212450E+00 0.14171626542E+00
 0.15297750122E+00 0.16153379546E+00 0.16674654851E+00 0.16946646554E+00 0.21198742994E+00
 0.20762022361E+00 0.19161400111E+00 0.16926753143E+00 0.15081193736E+00 0.15154734963E+00
 0.18821755361E+00 0.27036140287E+00 0.39042411120E+00 0.52004273417E+00 0.61792500436E+00
 0.64752786204E+00 0.59519176103E+00 0.47741947550E+00 0.33215861940E+00 0.19955343542E+00
 0.10452788394E+00 0.51022714876E-01 0.28262711861E-01 0.21596195225E-01 0.20121158546E-01
 0.18565881091E-01 0.15631930797E-01 0.11867475373E-01 0.84278658236E-02 0.64843016137E-02
 0.66903530153E-02 0.86469205057E-02 0.10886245474E-01 0.11745866413E-01 0.10582837467E-01
 0.81958263429E-02 0.60746461555E-02 0.53870192502E-02 0.66876501776E-02 0.10125194423E-01
 0.15312903163E-01 0.20951946851E-01 0.25188205467E-01 0.26940865894E-01 0.27021825466E-01
 0.27830817444E-01 0.31812030686E-01 0.39880611329E-01 0.50790509806E-01 0.61741702945E-01
 0.70031305960E-01 0.74919158849E-01 0.78348907862E-01 0.83814403696E-01 0.94320969589E-01
 0.11110114703E+00 0.13352452461E+00 0.15927726978E+00 0.18432853899E+00 0.20346808927E+00
 0.60871707722E-01 0.62793895924E-01 0.63907569763E-01 0.61634563603E-01 0.55513803012E-01
 0.46596228129E-01 0.35712267834E-01 0.22523168716E-01 0.63874817509E-02 -.11781715261E-01
 -.28553145572E-01 -.39064619982E-01 -.39603350679E-01 -.29988752285E-01 -.14181554702E-01
 0.14757139318E-02 0.11598860216E-01 0.14622024770E-01 0.13055774536E-01 0.10909385131E-01
 0.10525930420E-01 0.11505355541E-01 0.12131805944E-01 0.11358229756E-01 0.94958586814E-02
 0.76036587776E-02 0.66211395330E-02 0.68237909067E-02 0.76498562247E-02 0.80626614717E-02
 0.74366906506E-02 0.61961262280E-02 0.54063311729E-02 0.57565396139E-02 0.71903144376E-02
 0.94603886049E-02 0.12519065881E-01 0.16071140823E-01 0.19186859694E-01 0.21022256125E-01
 0.22009360454E-01 0.23885951496E-01 0.28225223077E-01 0.34953291161E-01 0.42317367281E-01
 0.48202443542E-01 0.51636264165E-01 0.53489760930E-01 0.55924803142E-01 0.60700699576E-01
 0.67370962687E-01 0.73063979420E-01 0.74568909510E-01 0.71155856155E-01 0.65445810630E-01
 0.61339944663E-01 -.52022593007E-01 -.44236550552E-01 -.28550012335E-01 -.13917471554E-01
 -.89976786933E-02 -.23503756781E-01 -.69031842781E-01 -.15425793096E+00 -.27521470473E+00
 -.40839053274E+00 -.51500789988E+00 -.55726956943E+00 -.51771236974E+00 -.40926432206E+00
 -.26913419421E+00 -.14010934121E+00 -.50770673051E-01 -.62022221019E-02 0.69468162060E-02
 0.70493969888E-02 0.62241342997E-02 0.76168353584E-02 0.95123390932E-02 0.10134362341E-01
 0.92894322499E-02 0.76531398656E-02 0.60003899235E-02 0.49689072921E-02 0.47650548265E-02
 0.49692289482E-02 0.50536125098E-02 0.51335302249E-02 0.57999237466E-02 0.71584495110E-02
 0.85393517086E-02 0.94197290574E-02 0.10199351317E-01 0.11627920659E-01 0.13755773138E-01
 0.16035890917E-01 0.18419397052E-01 0.21708513924E-01 0.26483187016E-01 0.32004765179E-01
 0.36591978144E-01 0.39106724134E-01 0.40015921801E-01 0.41149570639E-01 0.44340538992E-01
 0.49538389282E-01 0.53405062972E-01 0.50009457042E-01 0.34471505551E-01 0.76014760478E-02
 -.22605206093E-01 -.44967993997E-01 0.50423427702E-01 0.53648224569E-01 0.52797713099E-01
 0.46081978992E-01 0.36301166159E-01 0.28946344933E-01 0.27971488803E-01 0.33051098640E-01
 0.40358773035E-01 0.45446076175E-01 0.45652813888E-01 0.40991534058E-01 0.33768523686E-01
 0.27132276369E-01 0.22954109483E-01 0.20574544943E-01 0.17861482440E-01 0.13686124131E-01
 0.91070443881E-02 0.60538376358E-02 0.53193239804E-02 0.61489816470E-02 0.73273079106E-02
 0.80427071086E-02 0.78783417130E-02 0.67314545392E-02 0.50332375517E-02 0.36072252345E-02
 0.29749613576E-02 0.30262702048E-02 0.35554353078E-02 0.47469947662E-02 0.67154818897E-02
 0.87964787667E-02 0.98793984166E-02 0.95868371321E-02 0.87817231083E-02 0.87456511395E-02
 0.10109824290E-01 0.12741870108E-01 0.16353492689E-01 0.20778793513E-01 0.25620354469E-01
 0.29960572266E-01 0.32767318634E-01 0.33776034251E-01 0.34040726317E-01 0.35497734932E-01
 0.39620833761E-01 0.46083732051E-01 0.52585486209E-01 0.56220501099E-01 0.55525140137E-01
 0.51703551459E-01 0.48015048059E-01 0.47492547817E-01 0.15063529918E+00 0.14905730599E+00
 0.13266047068E+00 0.10637112053E+00 0.83167482997E-01 0.81984464402E-01 0.12092248959E+00
 0.20775795741E+00 0.33210060667E+00 0.46404715837E+00 0.56261225552E+00 0.59264254639E+00
 0.54221515382E+00 0.42924732096E+00 0.29177670146E+00 0.16819076496E+00 0.80834961644E-01
 0.32112304839E-01 0.11552599864E-01 0.58524091356E-02 0.54202946181E-02 0.59078428221E-02
 0.64292309654E-02 0.69761717322E-02 0.70696177124E-02 0.61734026307E-02 0.45576002777E-02
 0.31135218924E-02 0.24018358403E-02 0.23760663035E-02 0.30296908088E-02 0.46696370949E-02
 0.71930381780E-02 0.95400955708E-02 0.10439626372E-01 0.96777873086E-02 0.83275813662E-02
 0.77855793460E-02 0.88473493955E-02 0.11595904897E-01 0.15699944535E-01 0.20560943370E-01
 0.25346095163E-01 0.29151959969E-01 0.31343314528E-01 0.32007874528E-01 0.32279387094E-01
 0.33979335785E-01 0.38448177617E-01 0.45627283064E-01 0.54663530933E-01 0.65547080951E-01
 0.79650614797E-01 0.98080277858E-01 0.11939089748E+00 0.13898173100E+00 0.50423427702E-01
 0.53648224569E-01 0.52797713099E-01 0.46081978992E-01 0.36301166159E-01 0.28946344933E-01