   2   2   0   0
  0.1080000E+03  0.6000000E-09  0.6000000E-09  0.6000000E-09  0.5000000E-15
  1.000000000000000E-004
  CAR 
 unknown system                          
     -0.60901871    -29.11122970  301     -8.47087857      1.00000000
    -29.111  0.0000E+00  0.0000E+00
    -29.016  0.0000E+00  0.0000E+00
    -28.921  0.0000E+00  0.0000E+00
    -28.826  0.0000E+00  0.0000E+00
    -28.731  0.0000E+00  0.0000E+00
    -28.636  0.0000E+00  0.0000E+00
    -28.541  0.0000E+00  0.0000E+00
    -28.446  0.0000E+00  0.0000E+00
    -28.351  0.0000E+00  0.0000E+00
    -28.256  0.0000E+00  0.0000E+00
    -28.161  0.0000E+00  0.0000E+00
    -28.066  0.0000E+00  0.0000E+00
    -27.971 -0.9929-103 -0.9433-104
    -27.876 -0.4789E-14 -0.4550E-15
    -27.781  0.2105E+02  0.2000E+01
    -27.686  0.0000E+00  0.2000E+01
    -27.591  0.0000E+00  0.2000E+01
    -27.496  0.0000E+00  0.2000E+01
    -27.401  0.0000E+00  0.2000E+01
    -27.306  0.0000E+00  0.2000E+01
    -27.211  0.0000E+00  0.2000E+01
    -27.116  0.0000E+00  0.2000E+01
    -27.021  0.0000E+00  0.2000E+01
    -26.926  0.0000E+00  0.2000E+01
    -26.831  0.0000E+00  0.2000E+01
    -26.736  0.0000E+00  0.2000E+01
    -26.641  0.0000E+00  0.2000E+01
    -26.546  0.0000E+00  0.2000E+01
    -26.451  0.0000E+00  0.2000E+01
    -26.356  0.0000E+00  0.2000E+01
    -26.261  0.0000E+00  0.2000E+01
    -26.166  0.0000E+00  0.2000E+01
    -26.071  0.0000E+00  0.2000E+01
    -25.976  0.0000E+00  0.2000E+01
    -25.881  0.0000E+00  0.2000E+01
    -25.786  0.0000E+00  0.2000E+01
    -25.691  0.0000E+00  0.2000E+01
    -25.596  0.0000E+00  0.2000E+01
    -25.501  0.0000E+00  0.2000E+01
    -25.406  0.0000E+00  0.2000E+01
    -25.311  0.0000E+00  0.2000E+01
    -25.216  0.0000E+00  0.2000E+01
    -25.121  0.0000E+00  0.2000E+01
    -25.026  0.0000E+00  0.2000E+01
    -24.931  0.0000E+00  0.2000E+01
    -24.836  0.0000E+00  0.2000E+01
    -24.741  0.0000E+00  0.2000E+01
    -24.646  0.0000E+00  0.2000E+01
    -24.551  0.0000E+00  0.2000E+01
    -24.456  0.0000E+00  0.2000E+01
    -24.361  0.0000E+00  0.2000E+01
    -24.266  0.0000E+00  0.2000E+01
    -24.171  0.0000E+00  0.2000E+01
    -24.076  0.0000E+00  0.2000E+01
    -23.981  0.0000E+00  0.2000E+01
    -23.886  0.0000E+00  0.2000E+01
    -23.791  0.0000E+00  0.2000E+01
    -23.696  0.0000E+00  0.2000E+01
    -23.601  0.0000E+00  0.2000E+01
    -23.506  0.0000E+00  0.2000E+01
    -23.411  0.0000E+00  0.2000E+01
    -23.316  0.0000E+00  0.2000E+01
    -23.221  0.0000E+00  0.2000E+01
    -23.126  0.0000E+00  0.2000E+01
    -23.031  0.0000E+00  0.2000E+01
    -22.936  0.0000E+00  0.2000E+01
    -22.841  0.0000E+00  0.2000E+01
    -22.746  0.0000E+00  0.2000E+01
    -22.651  0.0000E+00  0.2000E+01
    -22.556  0.0000E+00  0.2000E+01
    -22.461  0.0000E+00  0.2000E+01
    -22.366  0.0000E+00  0.2000E+01
    -22.271  0.0000E+00  0.2000E+01
    -22.176  0.0000E+00  0.2000E+01
    -22.081  0.0000E+00  0.2000E+01
    -21.986  0.0000E+00  0.2000E+01
    -21.891  0.0000E+00  0.2000E+01
    -21.796  0.0000E+00  0.2000E+01
    -21.701  0.0000E+00  0.2000E+01
    -21.606  0.0000E+00  0.2000E+01
    -21.511  0.0000E+00  0.2000E+01
    -21.416  0.0000E+00  0.2000E+01
    -21.321  0.0000E+00  0.2000E+01
    -21.226  0.0000E+00  0.2000E+01
    -21.131  0.0000E+00  0.2000E+01
    -21.036  0.0000E+00  0.2000E+01
    -20.941  0.0000E+00  0.2000E+01
    -20.846  0.0000E+00  0.2000E+01
    -20.751  0.0000E+00  0.2000E+01
    -20.656  0.0000E+00  0.2000E+01
    -20.561  0.0000E+00  0.2000E+01
    -20.466  0.0000E+00  0.2000E+01
    -20.371  0.0000E+00  0.2000E+01
    -20.276  0.0000E+00  0.2000E+01
    -20.181  0.0000E+00  0.2000E+01
    -20.086  0.0000E+00  0.2000E+01
    -19.991  0.0000E+00  0.2000E+01
    -19.896  0.0000E+00  0.2000E+01
    -19.801  0.0000E+00  0.2000E+01
    -19.706  0.0000E+00  0.2000E+01
    -19.610  0.0000E+00  0.2000E+01
    -19.515  0.0000E+00  0.2000E+01
    -19.420  0.0000E+00  0.2000E+01
    -19.325  0.0000E+00  0.2000E+01
    -19.230  0.0000E+00  0.2000E+01
    -19.135  0.0000E+00  0.2000E+01
    -19.040  0.0000E+00  0.2000E+01
    -18.945  0.0000E+00  0.2000E+01
    -18.850  0.0000E+00  0.2000E+01
    -18.755  0.0000E+00  0.2000E+01
    -18.660  0.0000E+00  0.2000E+01
    -18.565  0.0000E+00  0.2000E+01
    -18.470  0.0000E+00  0.2000E+01
    -18.375  0.0000E+00  0.2000E+01
    -18.280  0.0000E+00  0.2000E+01
    -18.185  0.0000E+00  0.2000E+01
    -18.090  0.0000E+00  0.2000E+01
    -17.995  0.0000E+00  0.2000E+01
    -17.900  0.0000E+00  0.2000E+01
    -17.805  0.0000E+00  0.2000E+01
    -17.710  0.0000E+00  0.2000E+01
    -17.615  0.0000E+00  0.2000E+01
    -17.520  0.0000E+00  0.2000E+01
    -17.425  0.0000E+00  0.2000E+01
    -17.330  0.0000E+00  0.2000E+01
    -17.235  0.0000E+00  0.2000E+01
    -17.140  0.0000E+00  0.2000E+01
    -17.045  0.0000E+00  0.2000E+01
    -16.950  0.0000E+00  0.2000E+01
    -16.855  0.0000E+00  0.2000E+01
    -16.760  0.0000E+00  0.2000E+01
    -16.665  0.0000E+00  0.2000E+01
    -16.570  0.0000E+00  0.2000E+01
    -16.475  0.0000E+00  0.2000E+01
    -16.380  0.0000E+00  0.2000E+01
    -16.285  0.0000E+00  0.2000E+01
    -16.190  0.0000E+00  0.2000E+01
    -16.095  0.0000E+00  0.2000E+01
    -16.000  0.0000E+00  0.2000E+01
    -15.905  0.0000E+00  0.2000E+01
    -15.810  0.0000E+00  0.2000E+01
    -15.715  0.0000E+00  0.2000E+01
    -15.620  0.0000E+00  0.2000E+01
    -15.525  0.0000E+00  0.2000E+01
    -15.430  0.0000E+00  0.2000E+01
    -15.335  0.0000E+00  0.2000E+01
    -15.240  0.0000E+00  0.2000E+01
    -15.145  0.0000E+00  0.2000E+01
    -15.050  0.0000E+00  0.2000E+01
    -14.955  0.0000E+00  0.2000E+01
    -14.860  0.0000E+00  0.2000E+01
    -14.765  0.0000E+00  0.2000E+01
    -14.670  0.0000E+00  0.2000E+01
    -14.575  0.0000E+00  0.2000E+01
    -14.480  0.0000E+00  0.2000E+01
    -14.385  0.0000E+00  0.2000E+01
    -14.290  0.0000E+00  0.2000E+01
    -14.195  0.0000E+00  0.2000E+01
    -14.100  0.0000E+00  0.2000E+01
    -14.005  0.0000E+00  0.2000E+01
    -13.910  0.0000E+00  0.2000E+01
    -13.815  0.0000E+00  0.2000E+01
    -13.720  0.0000E+00  0.2000E+01
    -13.625  0.0000E+00  0.2000E+01
    -13.530 -0.5079E-39  0.2000E+01
    -13.435  0.6674E+01  0.2634E+01
    -13.340  0.0000E+00  0.4000E+01
    -13.245  0.0000E+00  0.4000E+01
    -13.150  0.0000E+00  0.4000E+01
    -13.055  0.0000E+00  0.4000E+01
    -12.960  0.0000E+00  0.4000E+01
    -12.865  0.0000E+00  0.4000E+01
    -12.770  0.0000E+00  0.4000E+01
    -12.675  0.0000E+00  0.4000E+01
    -12.580  0.0000E+00  0.4000E+01
    -12.485  0.0000E+00  0.4000E+01
    -12.390  0.0000E+00  0.4000E+01
    -12.295  0.0000E+00  0.4000E+01
    -12.200  0.0000E+00  0.4000E+01
    -12.105  0.0000E+00  0.4000E+01
    -12.010  0.0000E+00  0.4000E+01
    -11.915  0.0000E+00  0.4000E+01
    -11.820  0.0000E+00  0.4000E+01
    -11.725  0.0000E+00  0.4000E+01
    -11.630  0.0000E+00  0.4000E+01
    -11.535  0.0000E+00  0.4000E+01
    -11.440  0.0000E+00  0.4000E+01
    -11.345  0.0000E+00  0.4000E+01
    -11.250  0.0000E+00  0.4000E+01
    -11.155  0.0000E+00  0.4000E+01
    -11.060  0.0000E+00  0.4000E+01
    -10.965  0.0000E+00  0.4000E+01
    -10.870  0.0000E+00  0.4000E+01
    -10.775 -0.5045-129  0.4000E+01
    -10.680 -0.6553E-25  0.4000E+01
    -10.585  0.4309E+02  0.8094E+01
    -10.490  0.0000E+00  0.8000E+01
    -10.395  0.0000E+00  0.8000E+01
    -10.300  0.0000E+00  0.8000E+01
    -10.205  0.0000E+00  0.8000E+01
    -10.110  0.0000E+00  0.8000E+01
    -10.015  0.0000E+00  0.8000E+01
     -9.920  0.0000E+00  0.8000E+01
     -9.825  0.0000E+00  0.8000E+01
     -9.730  0.0000E+00  0.8000E+01
     -9.635  0.0000E+00  0.8000E+01
     -9.540  0.0000E+00  0.8000E+01
     -9.445  0.0000E+00  0.8000E+01
     -9.350  0.0000E+00  0.8000E+01
     -9.255  0.0000E+00  0.8000E+01
     -9.160  0.0000E+00  0.8000E+01
     -9.065  0.0000E+00  0.8000E+01
     -8.970  0.0000E+00  0.8000E+01
     -8.875  0.0000E+00  0.8000E+01
     -8.780  0.0000E+00  0.8000E+01
     -8.685 -0.2114-113  0.8000E+01
     -8.590 -0.2604E-18  0.8000E+01
     -8.495  0.2106E+02  0.1000E+02
     -8.400  0.0000E+00  0.1000E+02
     -8.305  0.0000E+00  0.1000E+02
     -8.210  0.0000E+00  0.1000E+02
     -8.115  0.0000E+00  0.1000E+02
     -8.020  0.0000E+00  0.1000E+02
     -7.925  0.0000E+00  0.1000E+02
     -7.830  0.0000E+00  0.1000E+02
     -7.735  0.0000E+00  0.1000E+02
     -7.640  0.0000E+00  0.1000E+02
     -7.545  0.0000E+00  0.1000E+02
     -7.450  0.0000E+00  0.1000E+02
     -7.355  0.0000E+00  0.1000E+02
     -7.260  0.0000E+00  0.1000E+02
     -7.165  0.0000E+00  0.1000E+02
     -7.070  0.0000E+00  0.1000E+02
     -6.975  0.0000E+00  0.1000E+02
     -6.880  0.0000E+00  0.1000E+02
     -6.784  0.0000E+00  0.1000E+02
     -6.689  0.0000E+00  0.1000E+02
     -6.594  0.0000E+00  0.1000E+02
     -6.499  0.0000E+00  0.1000E+02
     -6.404  0.0000E+00  0.1000E+02
     -6.309  0.0000E+00  0.1000E+02
     -6.214  0.0000E+00  0.1000E+02
     -6.119  0.0000E+00  0.1000E+02
     -6.024  0.0000E+00  0.1000E+02
     -5.929  0.0000E+00  0.1000E+02
     -5.834  0.0000E+00  0.1000E+02
     -5.739  0.0000E+00  0.1000E+02
     -5.644  0.0000E+00  0.1000E+02
     -5.549  0.0000E+00  0.1000E+02
     -5.454  0.0000E+00  0.1000E+02
     -5.359  0.0000E+00  0.1000E+02
     -5.264  0.0000E+00  0.1000E+02
     -5.169  0.0000E+00  0.1000E+02
     -5.074  0.0000E+00  0.1000E+02
     -4.979  0.0000E+00  0.1000E+02
     -4.884  0.0000E+00  0.1000E+02
     -4.789  0.0000E+00  0.1000E+02
     -4.694  0.0000E+00  0.1000E+02
     -4.599  0.0000E+00  0.1000E+02
     -4.504  0.0000E+00  0.1000E+02
     -4.409  0.0000E+00  0.1000E+02
     -4.314  0.0000E+00  0.1000E+02
     -4.219  0.0000E+00  0.1000E+02
     -4.124  0.0000E+00  0.1000E+02
     -4.029  0.0000E+00  0.1000E+02
     -3.934  0.0000E+00  0.1000E+02
     -3.839  0.0000E+00  0.1000E+02
     -3.744  0.0000E+00  0.1000E+02
     -3.649  0.0000E+00  0.1000E+02
     -3.554  0.0000E+00  0.1000E+02
     -3.459  0.0000E+00  0.1000E+02
     -3.364  0.0000E+00  0.1000E+02
     -3.269  0.0000E+00  0.1000E+02
     -3.174  0.0000E+00  0.1000E+02
     -3.079  0.0000E+00  0.1000E+02
     -2.984  0.0000E+00  0.1000E+02
     -2.889  0.0000E+00  0.1000E+02
     -2.794  0.0000E+00  0.1000E+02
     -2.699  0.0000E+00  0.1000E+02
     -2.604  0.0000E+00  0.1000E+02
     -2.509  0.0000E+00  0.1000E+02
     -2.414  0.0000E+00  0.1000E+02
     -2.319  0.0000E+00  0.1000E+02
     -2.224  0.0000E+00  0.1000E+02
     -2.129  0.0000E+00  0.1000E+02
     -2.034 -0.9804E-71  0.1000E+02
     -1.939 -0.1236E-03  0.1000E+02
     -1.844  0.2105E+02  0.1200E+02
     -1.749  0.0000E+00  0.1200E+02
     -1.654  0.0000E+00  0.1200E+02
     -1.559  0.0000E+00  0.1200E+02
     -1.464  0.0000E+00  0.1200E+02
     -1.369  0.0000E+00  0.1200E+02
     -1.274  0.0000E+00  0.1200E+02
     -1.179  0.0000E+00  0.1200E+02
     -1.084  0.0000E+00  0.1200E+02
     -0.989  0.0000E+00  0.1200E+02
     -0.894  0.0000E+00  0.1200E+02
     -0.799  0.0000E+00  0.1200E+02
     -0.704  0.0000E+00  0.1200E+02
     -0.609  0.0000E+00  0.1200E+02
