    2    2    1    1
  0.1080000E+03  0.6000000E-09  0.6000000E-09  0.6000000E-09  0.5000000E-15
  1.000000000000000E-004
  CAR 
 unknown system                          
   10    1    6
 
  0.0000000E+00  0.0000000E+00  0.0000000E+00  0.1000000E+01
   1      -27.815675
   2      -13.432792
   3      -10.600724
   4      -10.600724
   5       -8.521452
   6       -1.904574
