       N       E                     dE             d eps       ncg     rms          rms(c)
DAV:   1     0.632173925270E+02    0.63217E+02   -0.28208E+03    12   0.851E+02
DAV:   2    -0.519092315134E+01   -0.68408E+02   -0.68408E+02    18   0.240E+02
DAV:   3    -0.148507414616E+02   -0.96598E+01   -0.96598E+01    12   0.977E+01
DAV:   4    -0.152836304016E+02   -0.43289E+00   -0.43347E+00    24   0.160E+01
DAV:   5    -0.152848113191E+02   -0.11809E-02   -0.60113E-03    12   0.769E-01    0.560E+00
DAV:   6    -0.148197807763E+02    0.46503E+00   -0.36166E+00    12   0.185E+01    0.314E+00
DAV:   7    -0.147194126545E+02    0.10037E+00   -0.55168E-01    18   0.766E+00    0.163E+00
DAV:   8    -0.146857229374E+02    0.33690E-01   -0.12032E-01    12   0.383E+00    0.280E-01
DAV:   9    -0.146864899946E+02   -0.76706E-03   -0.21405E-02    18   0.139E+00    0.173E-01
DAV:  10    -0.146866309745E+02   -0.14098E-03   -0.39880E-03    12   0.618E-01    0.316E-02
DAV:  11    -0.146875770842E+02   -0.94611E-03   -0.30206E-04    12   0.219E-01    0.146E-02
DAV:  12    -0.146878258055E+02   -0.24872E-03   -0.34475E-05     6   0.575E-02    0.670E-03
DAV:  13    -0.146879056286E+02   -0.79823E-04   -0.23507E-05     6   0.420E-02
   1 F= -.14687906E+02 E0= -.14687906E+02  d E =0.110373E-11
