 vasp.5.2.12 11Nov11 complex                                                    
  
 executed on             LinuxIFC date 2012.11.28  14:00:03
 running on    1 nodes
 distr:  one band on    1 nodes,    1 groups


--------------------------------------------------------------------------------------------------------


 INCAR:
 POTCAR:   PAW_PBE C 08Apr2002                    
 POTCAR:   PAW_PBE O 08Apr2002                    
 POTCAR:   PAW_PBE C 08Apr2002                    
   VRHFIN =C: s2p2                                                              
   LEXCH  = PE                                                                  
   EATOM  =   147.1560 eV,   10.8157 Ry                                         
                                                                                
   TITEL  = PAW_PBE C 08Apr2002                                                 
   LULTRA =        F    use ultrasoft PP ?                                      
   IUNSCR =        0    unscreen: 0-lin 1-nonlin 2-no                           
   RPACOR =     .000    partial core radius                                     
   POMASS =   12.011; ZVAL   =    4.000    mass and valenz                      
   RCORE  =    1.500    outmost cutoff radius                                   
   RWIGS  =    1.630; RWIGS  =     .863    wigner-seitz radius (au A)           
   ENMAX  =  400.000; ENMIN  =  300.000 eV                                      
   ICORE  =        2    local potential                                         
   LCOR   =        T    correct aug charges                                     
   LPAW   =        T    paw PP                                                  
   EAUG   =  644.873                                                            
   DEXC   =     .000                                                            
   RMAX   =    2.266    core radius for proj-oper                               
   RAUG   =    1.300    factor for augmentation sphere                          
   RDEP   =    1.501    radius for radial grids                                 
   RDEPT  =    1.300    core radius for aug-charge                              
   QCUT   =   -5.516; QGAM   =   11.032    optimization parameters              
                                                                                
   Description                                                                  
     l     E      TYP  RCUT    TYP  RCUT                                        
     0   .000     23  1.200                                                     
     0   .000     23  1.200                                                     
     1   .000     23  1.500                                                     
     1  2.500     23  1.500                                                     
     2   .000      7  1.500                                                     
  local pseudopotential read in
  atomic valenz-charges read in
  non local Contribution for L=           0  read in
    real space projection operators read in
  non local Contribution for L=           0  read in
    real space projection operators read in
  non local Contribution for L=           1  read in
    real space projection operators read in
  non local Contribution for L=           1  read in
    real space projection operators read in
    PAW grid and wavefunctions read in
 
   number of l-projection  operators is LMAX  =           4
   number of lm-projection operators is LMMAX =           8
 
 POTCAR:   PAW_PBE O 08Apr2002                    
   VRHFIN =O: s2p4                                                              
   LEXCH  = PE                                                                  
   EATOM  =   432.3788 eV,   31.7789 Ry                                         
                                                                                
   TITEL  = PAW_PBE O 08Apr2002                                                 
   LULTRA =        F    use ultrasoft PP ?                                      
   IUNSCR =        0    unscreen: 0-lin 1-nonlin 2-no                           
   RPACOR =     .000    partial core radius                                     
   POMASS =   16.000; ZVAL   =    6.000    mass and valenz                      
   RCORE  =    1.520    outmost cutoff radius                                   
   RWIGS  =    1.550; RWIGS  =     .820    wigner-seitz radius (au A)           
   ENMAX  =  400.000; ENMIN  =  300.000 eV                                      
   ICORE  =        2    local potential                                         
   LCOR   =        T    correct aug charges                                     
   LPAW   =        T    paw PP                                                  
   EAUG   =  605.392                                                            
   DEXC   =     .000                                                            
   RMAX   =    2.264    core radius for proj-oper                               
   RAUG   =    1.300    factor for augmentation sphere                          
   RDEP   =    1.550    radius for radial grids                                 
   QCUT   =   -5.520; QGAM   =   11.041    optimization parameters              
                                                                                
   Description                                                                  
     l     E      TYP  RCUT    TYP  RCUT                                        
     0   .000     23  1.200                                                     
     0  -.700     23  1.200                                                     
     1   .000     23  1.520                                                     
     1   .600     23  1.520                                                     
     2   .000      7  1.500                                                     
  local pseudopotential read in
  atomic valenz-charges read in
  non local Contribution for L=           0  read in
    real space projection operators read in
  non local Contribution for L=           0  read in
    real space projection operators read in
  non local Contribution for L=           1  read in
    real space projection operators read in
  non local Contribution for L=           1  read in
    real space projection operators read in
    PAW grid and wavefunctions read in
 
   number of l-projection  operators is LMAX  =           4
   number of lm-projection operators is LMMAX =           8
 
 PAW_PBE C 08Apr2002                    :
 energy of atom  1       EATOM= -147.1560
 kinetic energy error for atom=    0.0854 (will be added to EATOM!!)
 PAW_PBE O 08Apr2002                    :
 energy of atom  2       EATOM= -432.3788
 kinetic energy error for atom=    0.3782 (will be added to EATOM!!)
 
 
 POSCAR:  C  O                                   
  positions in cartesian coordinates
  No initial velocities read in
 exchange correlation table for  LEXCH =        8
   RHO(1)=    0.500       N(1)  =     2000
   RHO(2)=  100.500       N(2)  =     4000
 


--------------------------------------------------------------------------------------------------------


 ion  position               nearest neighbor table
   1  0.000  0.000  0.000-   2 1.20
   2  0.200  0.000  0.000-   1 1.20
 
  LATTYP: Found a simple cubic cell.
 ALAT       =     6.0000000000
  
  Lattice vectors:
  
 A1 = (   6.0000000000,   0.0000000000,   0.0000000000)
 A2 = (   0.0000000000,   6.0000000000,   0.0000000000)
 A3 = (   0.0000000000,   0.0000000000,   6.0000000000)
 Subroutine PRICEL returns:
 Original cell was already a primitive cell.
 

Analysis of symmetry for initial positions (statically):

 Routine SETGRP: Setting up the symmetry group for a 
 simple cubic supercell.


 Subroutine GETGRP returns: Found  8 space group operations
 (whereof  8 operations were pure point group operations)
 out of a pool of 48 trial point group operations.


The static configuration has the point symmetry C_4v.

Analysis of symmetry for dynamics (positions and initial velocities):

 Subroutine DYNSYM returns: Found  8 space group operations
 (whereof  8 operations were pure point group operations)
 out of a pool of  8 trial space group operations
 (whereof  8 operations were pure point group operations)
 and found also     1 'primitive' translations


The dynamic configuration has the point symmetry C_4v.
 
 
 KPOINTS: KPOINTS created by Atomic Simulation Env

Automatic generation of k-mesh.
 
 Subroutine IBZKPT returns following result:
 ===========================================
 
 Found      1 irreducible k-points:
 
 Following reciprocal coordinates:
            Coordinates               Weight
  0.000000  0.000000  0.000000      1.000000
 
 Following cartesian coordinates:
            Coordinates               Weight
  0.000000  0.000000  0.000000      1.000000
 


--------------------------------------------------------------------------------------------------------




 Dimension of arrays:
   k-points           NKPTS =      1   k-points in BZ     NKDIM =      1   number of bands    NBANDS=      6
   number of dos      NEDOS =    301   number of ions     NIONS =      2
   non local maximal  LDIM  =      4   non local SUM 2l+1 LMDIM =      8
   total plane-waves  NPLWV =  21952
   max r-space proj   IRMAX =      1   max aug-charges    IRDMAX=   1518
   dimension x,y,z NGX =    28 NGY =   28 NGZ =   28
   dimension x,y,z NGXF=    56 NGYF=   56 NGZF=   56
   support grid    NGXF=    56 NGYF=   56 NGZF=   56
   ions per type =               1   1
 NGX,Y,Z   is equivalent  to a cutoff of   7.76,  7.76,  7.76 a.u.
 NGXF,Y,Z  is equivalent  to a cutoff of  15.52, 15.52, 15.52 a.u.


 I would recommend the setting:
   dimension x,y,z NGX =    27 NGY =   27 NGZ =   27
 SYSTEM =  unknown system                          
 POSCAR =   C  O                                   

 Startparameter for this run:
   NWRITE =      2    write-flag & timer
   PREC   = normal    normal or accurate (medium, high low for compatibility)
   ISTART =      0    job   : 0-new  1-cont  2-samecut
   ICHARG =      2    charge: 1-file 2-atom 10-const
   ISPIN  =      1    spin polarized calculation?
   LNONCOLLINEAR =      F non collinear calculations
   LSORBIT =      F    spin-orbit coupling
   INIWAV =      1    electr: 0-lowe 1-rand  2-diag
   LASPH  =      F    aspherical Exc in radial PAW
   METAGGA=      F    non-selfconsistent MetaGGA calc.

 Electronic Relaxation 1
   ENCUT  =  350.0 eV  25.72 Ry    5.07 a.u.   9.15  9.15  9.15*2*pi/ulx,y,z
   ENINI  =  350.0     initial cutoff
   ENAUG  =  644.9 eV  augmentation charge cutoff
   NELM   =     60;   NELMIN=  2; NELMDL= -5     # of ELM steps 
   EDIFF  = 0.1E-03   stopping-criterion for ELM
   LREAL  =      F    real-space projection
   NLSPLINE    = F    spline interpolate recip. space projectors
   LCOMPAT=      F    compatible to vasp.4.4
   GGA_COMPAT  = T    GGA compatible to vasp.4.4-vasp.4.6
   LMAXPAW     = -100 max onsite density
   LMAXMIX     =    2 max onsite mixed and CHGCAR
   VOSKOWN=      0    Vosko Wilk Nusair interpolation
   ROPT   =    0.00000   0.00000
 Ionic relaxation
   EDIFFG = 0.1E-02   stopping-criterion for IOM
   NSW    =      0    number of steps for IOM
   NBLOCK =      1;   KBLOCK =      1    inner block; outer block 
   IBRION =     -1    ionic relax: 0-MD 1-quasi-New 2-CG
   NFREE  =      0    steps in history (QN), initial steepest desc. (CG)
   ISIF   =      2    stress and relaxation
   IWAVPR =     10    prediction:  0-non 1-charg 2-wave 3-comb
   ISYM   =      2    0-nonsym 1-usesym 2-fastsym
   LCORR  =      T    Harris-Foulkes like correction to forces

   POTIM  = 0.5000    time-step for ionic-motion
   TEIN   =    0.0    initial temperature
   TEBEG  =    0.0;   TEEND  =   0.0 temperature during run
   SMASS  =  -3.00    Nose mass-parameter (am)
   estimated Nose-frequenzy (Omega)   =  0.10E-29 period in steps =****** mass=  -0.823E-27a.u.
   SCALEE = 1.0000    scale energy and forces
   NPACO  =    256;   APACO  = 16.0  distance and # of slots for P.C.
   PSTRESS=    0.0 pullay stress

  Mass of Ions in am
   POMASS =  12.01 16.00
  Ionic Valenz
   ZVAL   =   4.00  6.00
  Atomic Wigner-Seitz radii
   RWIGS  =  -1.00 -1.00
  virtual crystal weights 
   VCA    =   1.00  1.00
   NELECT =      10.0000    total number of electrons
   NUPDOWN=      -1.0000    fix difference up-down

 DOS related values:
   EMIN   =  10.00;   EMAX   =-10.00  energy-range for DOS
   EFERMI =   0.00
   ISMEAR =     1;   SIGMA  =   0.01  broadening in eV -4-tet -1-fermi 0-gaus

 Electronic relaxation 2 (details)
   IALGO  =     38    algorithm
   LDIAG  =      T    sub-space diagonalisation (order eigenvalues)
   LSUBROT=      T    optimize rotation matrix (better conditioning)
   TURBO    =      0    0=normal 1=particle mesh
   IRESTART =      0    0=no restart 2=restart with 2 vectors
   NREBOOT  =      0    no. of reboots
   NMIN     =      0    reboot dimension
   EREF     =   0.00    reference energy to select bands
   IMIX   =      4    mixing-type and parameters
     AMIX     =   0.40;   BMIX     =  1.00
     AMIX_MAG =   1.60;   BMIX_MAG =  1.00
     AMIN     =   0.10
     WC   =   100.;   INIMIX=   1;  MIXPRE=   1

 Intra band minimization:
   WEIMIN = 0.0000     energy-eigenvalue tresh-hold
   EBREAK =  0.42E-05  absolut break condition
   DEPER  =   0.30     relativ break condition  

   TIME   =   0.40     timestep for ELM

  volume/ion in A,a.u.               =     108.00       728.82
  Fermi-wavevector in a.u.,A,eV,Ry     =   0.587837  1.110851  4.701525  0.345552
  Thomas-Fermi vector in A             =   1.634867
 
 Write flags
   LWAVE  =      T    write WAVECAR
   LCHARG =      T    write CHGCAR
   LVTOT  =      F    write LOCPOT, total local potential
   LVHAR  =      F    write LOCPOT, Hartree potential only
   LELF   =      F    write electronic localiz. function (ELF)
   LORBIT =      0    0 simple, 1 ext, 2 COOP (PROOUT)


 Dipole corrections
   LMONO  =      F    monopole corrections only (constant potential shift)
   LDIPOL =      F    correct potential (dipole corrections)
   IDIPOL =      0    1-x, 2-y, 3-z, 4-all directions 
   EPSILON=  1.0000000 bulk dielectric constant

 Exchange correlation treatment:
   GGA     =    --    GGA type
   LEXCH   =     8    internal setting for exchange type
   VOSKOWN=      0    Vosko Wilk Nusair interpolation
   LHFCALC =     F    Hartree Fock is set to
   LHFONE  =     F    Hartree Fock one center treatment
   AEXX    =    0.0000 exact exchange contribution

 Linear response parameters
   LEPSILON=     F    determine dielectric tensor
   LRPA    =     F    only Hartree local field effects (RPA)
   LNABLA  =     F    use nabla operator in PAW spheres
   LVEL    =     F    velocity operator in full k-point grid
   LINTERFAST=   F  fast interpolation
   KINTER  =     0    interpolate to denser k-point grid
   CSHIFT  =0.1000    complex shift for real part using Kramers Kronig
   OMEGAMAX=  -1.0    maximum frequency
   RTIME   =    0.100 relaxation time in fs

 Orbital magnetization related:
   ORBITALMAG=     F  switch on orbital magnetization
   LCHIMAG   =     F  perturbation theory with respect to B field
   DQ        =  0.001000  dq finite difference perturbation B field



--------------------------------------------------------------------------------------------------------


 Static calculation
 charge density and potential will be updated during run
 non-spin polarized calculation
 Variant of blocked Davidson
 Davidson routine will perform the subspace rotation
 perform sub-space diagonalisation
    after iterative eigenvector-optimisation
 modified Broyden-mixing scheme, WC =      100.0
 initial mixing is a Kerker type mixing with AMIX =  0.4000 and BMIX =      1.0000
 Hartree-type preconditioning will be used
 using additional bands            1
 reciprocal scheme for non local part
 calculate Harris-corrections to forces 
   (improved forces if not selfconsistent)
 use gradient corrections 
 use of overlap-Matrix (Vanderbilt PP)
 Methfessel and Paxton  Order N= 1 SIGMA  =   0.01


--------------------------------------------------------------------------------------------------------


  energy-cutoff  :      350.00
  volume of cell :      216.00
      direct lattice vectors                 reciprocal lattice vectors
     6.000000000  0.000000000  0.000000000     0.166666667  0.000000000  0.000000000
     0.000000000  6.000000000  0.000000000     0.000000000  0.166666667  0.000000000
     0.000000000  0.000000000  6.000000000     0.000000000  0.000000000  0.166666667

  length of vectors
     6.000000000  6.000000000  6.000000000     0.166666667  0.166666667  0.166666667


 
 k-points in units of 2pi/SCALE and weight: KPOINTS created by Atomic Simulation Env
   0.00000000  0.00000000  0.00000000       1.000
 
 k-points in reciprocal lattice and weights: KPOINTS created by Atomic Simulation Env
   0.00000000  0.00000000  0.00000000       1.000
 
 position of ions in fractional coordinates (direct lattice) 
   0.00000000  0.00000000  0.00000000
   0.20000000  0.00000000  0.00000000
 
 position of ions in cartesian coordinates  (Angst):
   0.00000000  0.00000000  0.00000000
   1.20000000  0.00000000  0.00000000
 


--------------------------------------------------------------------------------------------------------


 k-point  1 :  0.00000.00000.0000  plane waves:    3191

 maximum and minimum number of plane-waves per node :      3191     3191

 maximum number of plane-waves:      3191
 maximum index in each direction: 
   IXMAX=    9   IYMAX=    9   IZMAX=    9
   IXMIN=   -9   IYMIN=   -9   IZMIN=   -9

 WARNING: aliasing errors must be expected set NGX to  38 to avoid them
 WARNING: aliasing errors must be expected set NGY to  38 to avoid them
 WARNING: aliasing errors must be expected set NGZ to  38 to avoid them
 aliasing errors are usually negligible using standard VASP settings
 and one can safely disregard these warnings

 serial   3D FFT for wavefunctions
 parallel 3D FFT for charge:
    minimum data exchange during FFTs selected (reduces bandwidth)


 total amount of memory used by VASP on root node    47991. kBytes
========================================================================

   base      :      30000. kBytes
   nonl-proj :        510. kBytes
   fftplans  :       6192. kBytes
   grid      :      10976. kBytes
   one-center:          6. kBytes
   wavefun   :        307. kBytes
 
 Broyden mixing: mesh for mixing (old mesh)
   NGX = 19   NGY = 19   NGZ = 19
  (NGX  = 56   NGY  = 56   NGZ  = 56)
  gives a total of   6859 points

 initial charge density was supplied:
 charge density of overlapping atoms calculated
 number of electron      10.0000000 magnetization 
 keeping initial charge density in first step


--------------------------------------------------------------------------------------------------------


 Maximum index for augmentation-charges         1289 (set IRDMAX)


--------------------------------------------------------------------------------------------------------


 First call to EWALD:  gamma=   0.295
 Maximum number of real-space cells 3x 3x 3
 Maximum number of reciprocal cells 3x 3x 3

    FEWALD:  cpu time    0.00: real time    0.00


----------------------------------------- Iteration    1(   1)  ---------------------------------------


    POTLOK:  cpu time    0.25: real time    0.26
    SETDIJ:  cpu time    0.01: real time    0.01
     EDDAV:  cpu time    0.07: real time    0.07
       DOS:  cpu time    0.00: real time    0.00
    --------------------------------------------
      LOOP:  cpu time    0.33: real time    0.33

 eigenvalue-minimisations  :    12
 total energy-change (2. order) : 0.6321739E+02  (-0.2820756E+03)
 number of electron      10.0000000 magnetization 
 augmentation part       10.0000000 magnetization 

 Free energy of the ion-electron system (eV)
  ---------------------------------------------------
  alpha Z        PSCENC =         2.01506880
  Ewald energy   TEWEN  =       -47.36045935
  -1/2 Hartree   DENC   =      -427.92920097
  -exchange  EXHF       =         0.00000000
  -V(xc)+E(xc)   XCENC  =        39.59676765
  PAW double counting   =       283.82984571     -286.83001101
  entropy T*S    EENTRO =         0.00000000
  eigenvalues    EBANDS =       -79.17584877
  atomic energy  EATOM  =       579.07123046
  ---------------------------------------------------
  free energy    TOTEN  =        63.21739253 eV

  energy without entropy =       63.21739253  energy(sigma->0) =       63.21739253


--------------------------------------------------------------------------------------------------------




----------------------------------------- Iteration    1(   2)  ---------------------------------------


     EDDAV:  cpu time    0.09: real time    0.09
       DOS:  cpu time    0.00: real time    0.00
    --------------------------------------------
      LOOP:  cpu time    0.09: real time    0.09

 eigenvalue-minimisations  :    18
 total energy-change (2. order) :-0.6840832E+02  (-0.6840832E+02)
 number of electron      10.0000000 magnetization 
 augmentation part       10.0000000 magnetization 

 Free energy of the ion-electron system (eV)
  ---------------------------------------------------
  alpha Z        PSCENC =         2.01506880
  Ewald energy   TEWEN  =       -47.36045935
  -1/2 Hartree   DENC   =      -427.92920097
  -exchange  EXHF       =         0.00000000
  -V(xc)+E(xc)   XCENC  =        39.59676765
  PAW double counting   =       283.82984571     -286.83001101
  entropy T*S    EENTRO =         0.00000000
  eigenvalues    EBANDS =      -147.58416445
  atomic energy  EATOM  =       579.07123046
  ---------------------------------------------------
  free energy    TOTEN  =        -5.19092315 eV

  energy without entropy =       -5.19092315  energy(sigma->0) =       -5.19092315


--------------------------------------------------------------------------------------------------------




----------------------------------------- Iteration    1(   3)  ---------------------------------------


     EDDAV:  cpu time    0.06: real time    0.06
       DOS:  cpu time    0.00: real time    0.00
    --------------------------------------------
      LOOP:  cpu time    0.06: real time    0.08

 eigenvalue-minimisations  :    12
 total energy-change (2. order) :-0.9659818E+01  (-0.9659818E+01)
 number of electron      10.0000000 magnetization 
 augmentation part       10.0000000 magnetization 

 Free energy of the ion-electron system (eV)
  ---------------------------------------------------
  alpha Z        PSCENC =         2.01506880
  Ewald energy   TEWEN  =       -47.36045935
  -1/2 Hartree   DENC   =      -427.92920097
  -exchange  EXHF       =         0.00000000
  -V(xc)+E(xc)   XCENC  =        39.59676765
  PAW double counting   =       283.82984571     -286.83001101
  entropy T*S    EENTRO =         0.00000000
  eigenvalues    EBANDS =      -157.24398276
  atomic energy  EATOM  =       579.07123046
  ---------------------------------------------------
  free energy    TOTEN  =       -14.85074146 eV

  energy without entropy =      -14.85074146  energy(sigma->0) =      -14.85074146


--------------------------------------------------------------------------------------------------------




----------------------------------------- Iteration    1(   4)  ---------------------------------------


     EDDAV:  cpu time    0.11: real time    0.11
       DOS:  cpu time    0.00: real time    0.00
    --------------------------------------------
      LOOP:  cpu time    0.11: real time    0.12

 eigenvalue-minimisations  :    24
 total energy-change (2. order) :-0.4328889E+00  (-0.4334687E+00)
 number of electron      10.0000000 magnetization 
 augmentation part       10.0000000 magnetization 

 Free energy of the ion-electron system (eV)
  ---------------------------------------------------
  alpha Z        PSCENC =         2.01506880
  Ewald energy   TEWEN  =       -47.36045935
  -1/2 Hartree   DENC   =      -427.92920097
  -exchange  EXHF       =         0.00000000
  -V(xc)+E(xc)   XCENC  =        39.59676765
  PAW double counting   =       283.82984571     -286.83001101
  entropy T*S    EENTRO =         0.00057979
  eigenvalues    EBANDS =      -157.67745149
  atomic energy  EATOM  =       579.07123046
  ---------------------------------------------------
  free energy    TOTEN  =       -15.28363040 eV

  energy without entropy =      -15.28421019  energy(sigma->0) =      -15.28382367


--------------------------------------------------------------------------------------------------------




----------------------------------------- Iteration    1(   5)  ---------------------------------------


     EDDAV:  cpu time    0.06: real time    0.06
       DOS:  cpu time    0.00: real time    0.00
    CHARGE:  cpu time    0.03: real time    0.03
    MIXING:  cpu time    0.01: real time    0.01
    --------------------------------------------
      LOOP:  cpu time    0.10: real time    0.12

 eigenvalue-minimisations  :    12
 total energy-change (2. order) :-0.1180917E-02  (-0.6011278E-03)
 number of electron       9.9999905 magnetization 
 augmentation part        0.6782734 magnetization 

 Broyden mixing:
  rms(total) = 0.56009E+00    rms(broyden)= 0.55840E+00
  rms(prec ) = 0.88650E+00
  weight for this iteration     100.00

 Free energy of the ion-electron system (eV)
  ---------------------------------------------------
  alpha Z        PSCENC =         2.01506880
  Ewald energy   TEWEN  =       -47.36045935
  -1/2 Hartree   DENC   =      -427.92920097
  -exchange  EXHF       =         0.00000000
  -V(xc)+E(xc)   XCENC  =        39.59676765
  PAW double counting   =       283.82984571     -286.83001101
  entropy T*S    EENTRO =         0.00000000
  eigenvalues    EBANDS =      -157.67805262
  atomic energy  EATOM  =       579.07123046
  ---------------------------------------------------
  free energy    TOTEN  =       -15.28481132 eV

  energy without entropy =      -15.28481132  energy(sigma->0) =      -15.28481132


--------------------------------------------------------------------------------------------------------




----------------------------------------- Iteration    1(   6)  ---------------------------------------


    POTLOK:  cpu time    0.25: real time    0.25
    SETDIJ:  cpu time    0.00: real time    0.01
     EDDAV:  cpu time    0.06: real time    0.06
       DOS:  cpu time    0.00: real time    0.00
    CHARGE:  cpu time    0.03: real time    0.03
    MIXING:  cpu time    0.01: real time    0.01
    --------------------------------------------
      LOOP:  cpu time    0.36: real time    0.37

 eigenvalue-minimisations  :    12
 total energy-change (2. order) : 0.4650305E+00  (-0.3616642E+00)
 number of electron       9.9999923 magnetization 
 augmentation part        0.5956789 magnetization 

 Broyden mixing:
  rms(total) = 0.31372E+00    rms(broyden)= 0.31317E+00
  rms(prec ) = 0.45498E+00
  weight for this iteration     100.00

 eigenvalues of (default mixing * dielectric matrix)
  average eigenvalue GAMMA=   0.9038
  0.9038

 Free energy of the ion-electron system (eV)
  ---------------------------------------------------
  alpha Z        PSCENC =         2.01506880
  Ewald energy   TEWEN  =       -47.36045935
  -1/2 Hartree   DENC   =      -439.71842461
  -exchange  EXHF       =         0.00000000
  -V(xc)+E(xc)   XCENC  =        40.28827013
  PAW double counting   =       326.34689056     -329.41588251
  entropy T*S    EENTRO =         0.00057979
  eigenvalues    EBANDS =      -146.04705405
  atomic energy  EATOM  =       579.07123046
  ---------------------------------------------------
  free energy    TOTEN  =       -14.81978078 eV

  energy without entropy =      -14.82036057  energy(sigma->0) =      -14.81997404


--------------------------------------------------------------------------------------------------------




----------------------------------------- Iteration    1(   7)  ---------------------------------------


    POTLOK:  cpu time    0.25: real time    0.25
    SETDIJ:  cpu time    0.01: real time    0.01
     EDDAV:  cpu time    0.09: real time    0.09
       DOS:  cpu time    0.00: real time    0.00
    CHARGE:  cpu time    0.03: real time    0.03
    MIXING:  cpu time    0.01: real time    0.01
    --------------------------------------------
      LOOP:  cpu time    0.38: real time    0.40

 eigenvalue-minimisations  :    18
 total energy-change (2. order) : 0.1003681E+00  (-0.5516817E-01)
 number of electron       9.9999917 magnetization 
 augmentation part        0.6212292 magnetization 

 Broyden mixing:
  rms(total) = 0.16279E+00    rms(broyden)= 0.16277E+00
  rms(prec ) = 0.23321E+00
  weight for this iteration     100.00

 eigenvalues of (default mixing * dielectric matrix)
  average eigenvalue GAMMA=   1.4637
  0.7349  2.1925

 Free energy of the ion-electron system (eV)
  ---------------------------------------------------
  alpha Z        PSCENC =         2.01506880
  Ewald energy   TEWEN  =       -47.36045935
  -1/2 Hartree   DENC   =      -439.92073788
  -exchange  EXHF       =         0.00000000
  -V(xc)+E(xc)   XCENC  =        40.32426620
  PAW double counting   =       337.12321327     -340.12175779
  entropy T*S    EENTRO =         0.00057979
  eigenvalues    EBANDS =      -145.85081616
  atomic energy  EATOM  =       579.07123046
  ---------------------------------------------------
  free energy    TOTEN  =       -14.71941265 eV

  energy without entropy =      -14.71999245  energy(sigma->0) =      -14.71960592


--------------------------------------------------------------------------------------------------------




----------------------------------------- Iteration    1(   8)  ---------------------------------------


    POTLOK:  cpu time    0.25: real time    0.25
    SETDIJ:  cpu time    0.01: real time    0.01
     EDDAV:  cpu time    0.06: real time    0.06
       DOS:  cpu time    0.00: real time    0.00
    CHARGE:  cpu time    0.03: real time    0.03
    MIXING:  cpu time    0.01: real time    0.01
    --------------------------------------------
      LOOP:  cpu time    0.36: real time    0.41

 eigenvalue-minimisations  :    12
 total energy-change (2. order) : 0.3368972E-01  (-0.1203175E-01)
 number of electron       9.9999918 magnetization 
 augmentation part        0.6159882 magnetization 

 Broyden mixing:
  rms(total) = 0.27993E-01    rms(broyden)= 0.27977E-01
  rms(prec ) = 0.52566E-01
  weight for this iteration     100.00

 eigenvalues of (default mixing * dielectric matrix)
  average eigenvalue GAMMA=   1.4944
  2.3138  1.4337  0.7357

 Free energy of the ion-electron system (eV)
  ---------------------------------------------------
  alpha Z        PSCENC =         2.01506880
  Ewald energy   TEWEN  =       -47.36045935
  -1/2 Hartree   DENC   =      -443.94045760
  -exchange  EXHF       =         0.00000000
  -V(xc)+E(xc)   XCENC  =        40.57981202
  PAW double counting   =       362.54738211     -365.49786807
  entropy T*S    EENTRO =         0.00057979
  eigenvalues    EBANDS =      -142.10101110
  atomic energy  EATOM  =       579.07123046
  ---------------------------------------------------
  free energy    TOTEN  =       -14.68572294 eV

  energy without entropy =      -14.68630273  energy(sigma->0) =      -14.68591620


--------------------------------------------------------------------------------------------------------




----------------------------------------- Iteration    1(   9)  ---------------------------------------


    POTLOK:  cpu time    0.25: real time    0.25
    SETDIJ:  cpu time    0.01: real time    0.01
     EDDAV:  cpu time    0.09: real time    0.09
       DOS:  cpu time    0.00: real time    0.00
    CHARGE:  cpu time    0.03: real time    0.03
    MIXING:  cpu time    0.01: real time    0.01
    --------------------------------------------
      LOOP:  cpu time    0.38: real time    0.40

 eigenvalue-minimisations  :    18
 total energy-change (2. order) :-0.7670572E-03  (-0.2140484E-02)
 number of electron       9.9999919 magnetization 
 augmentation part        0.6106827 magnetization 

 Broyden mixing:
  rms(total) = 0.17283E-01    rms(broyden)= 0.17254E-01
  rms(prec ) = 0.32170E-01
  weight for this iteration     100.00

 eigenvalues of (default mixing * dielectric matrix)
  average eigenvalue GAMMA=   1.4424
  2.3414  0.7713  0.9839  1.6729

 Free energy of the ion-electron system (eV)
  ---------------------------------------------------
  alpha Z        PSCENC =         2.01506880
  Ewald energy   TEWEN  =       -47.36045935
  -1/2 Hartree   DENC   =      -443.98882956
  -exchange  EXHF       =         0.00000000
  -V(xc)+E(xc)   XCENC  =        40.57630582
  PAW double counting   =       364.23855704     -367.16714987
  entropy T*S    EENTRO =         0.00000000
  eigenvalues    EBANDS =      -142.07121332
  atomic energy  EATOM  =       579.07123046
  ---------------------------------------------------
  free energy    TOTEN  =       -14.68648999 eV

  energy without entropy =      -14.68648999  energy(sigma->0) =      -14.68648999


--------------------------------------------------------------------------------------------------------




----------------------------------------- Iteration    1(  10)  ---------------------------------------


    POTLOK:  cpu time    0.25: real time    0.25
    SETDIJ:  cpu time    0.01: real time    0.01
     EDDAV:  cpu time    0.06: real time    0.06
       DOS:  cpu time    0.00: real time    0.00
    CHARGE:  cpu time    0.03: real time    0.03
    MIXING:  cpu time    0.01: real time    0.01
    --------------------------------------------
      LOOP:  cpu time    0.36: real time    0.41

 eigenvalue-minimisations  :    12
 total energy-change (2. order) :-0.1409799E-03  (-0.3987979E-03)
 number of electron       9.9999918 magnetization 
 augmentation part        0.6130207 magnetization 

 Broyden mixing:
  rms(total) = 0.31628E-02    rms(broyden)= 0.31424E-02
  rms(prec ) = 0.10511E-01
  weight for this iteration     100.00

 eigenvalues of (default mixing * dielectric matrix)
  average eigenvalue GAMMA=   1.5260
  2.4656  2.0240  0.7883  0.8925  1.4595

 Free energy of the ion-electron system (eV)
  ---------------------------------------------------
  alpha Z        PSCENC =         2.01506880
  Ewald energy   TEWEN  =       -47.36045935
  -1/2 Hartree   DENC   =      -443.92214560
  -exchange  EXHF       =         0.00000000
  -V(xc)+E(xc)   XCENC  =        40.57206120
  PAW double counting   =       364.44804423     -367.36600257
  entropy T*S    EENTRO =         0.00000000
  eigenvalues    EBANDS =      -142.14442814
  atomic energy  EATOM  =       579.07123046
  ---------------------------------------------------
  free energy    TOTEN  =       -14.68663097 eV

  energy without entropy =      -14.68663097  energy(sigma->0) =      -14.68663097


--------------------------------------------------------------------------------------------------------




----------------------------------------- Iteration    1(  11)  ---------------------------------------


    POTLOK:  cpu time    0.25: real time    0.25
    SETDIJ:  cpu time    0.01: real time    0.01
     EDDAV:  cpu time    0.06: real time    0.06
       DOS:  cpu time    0.00: real time    0.00
    CHARGE:  cpu time    0.03: real time    0.03
    MIXING:  cpu time    0.01: real time    0.01
    --------------------------------------------
      LOOP:  cpu time    0.36: real time    0.37

 eigenvalue-minimisations  :    12
 total energy-change (2. order) :-0.9461097E-03  (-0.3020619E-04)
 number of electron       9.9999918 magnetization 
 augmentation part        0.6127794 magnetization 

 Broyden mixing:
  rms(total) = 0.14638E-02    rms(broyden)= 0.14630E-02
  rms(prec ) = 0.36439E-02
  weight for this iteration     100.00

 eigenvalues of (default mixing * dielectric matrix)
  average eigenvalue GAMMA=   1.6634
  3.2707  2.3981  1.6220  0.7810  0.9544  0.9544

 Free energy of the ion-electron system (eV)
  ---------------------------------------------------
  alpha Z        PSCENC =         2.01506880
  Ewald energy   TEWEN  =       -47.36045935
  -1/2 Hartree   DENC   =      -444.09322606
  -exchange  EXHF       =         0.00000000
  -V(xc)+E(xc)   XCENC  =        40.57877784
  PAW double counting   =       364.43703121     -367.34812190
  entropy T*S    EENTRO =         0.00000000
  eigenvalues    EBANDS =      -141.98787808
  atomic energy  EATOM  =       579.07123046
  ---------------------------------------------------
  free energy    TOTEN  =       -14.68757708 eV

  energy without entropy =      -14.68757708  energy(sigma->0) =      -14.68757708


--------------------------------------------------------------------------------------------------------




----------------------------------------- Iteration    1(  12)  ---------------------------------------


    POTLOK:  cpu time    0.25: real time    0.25
    SETDIJ:  cpu time    0.00: real time    0.01
     EDDAV:  cpu time    0.04: real time    0.04
       DOS:  cpu time    0.00: real time    0.00
    CHARGE:  cpu time    0.03: real time    0.03
    MIXING:  cpu time    0.01: real time    0.01
    --------------------------------------------
      LOOP:  cpu time    0.34: real time    0.35

 eigenvalue-minimisations  :     6
 total energy-change (2. order) :-0.2487214E-03  (-0.3447493E-05)
 number of electron       9.9999918 magnetization 
 augmentation part        0.6127817 magnetization 

 Broyden mixing:
  rms(total) = 0.67005E-03    rms(broyden)= 0.66991E-03
  rms(prec ) = 0.12645E-02
  weight for this iteration     100.00

 eigenvalues of (default mixing * dielectric matrix)
  average eigenvalue GAMMA=   1.8745
  4.1161  2.5688  2.2121  1.5633  0.7813  0.9399  0.9399

 Free energy of the ion-electron system (eV)
  ---------------------------------------------------
  alpha Z        PSCENC =         2.01506880
  Ewald energy   TEWEN  =       -47.36045935
  -1/2 Hartree   DENC   =      -444.14148009
  -exchange  EXHF       =         0.00000000
  -V(xc)+E(xc)   XCENC  =        40.58036959
  PAW double counting   =       364.21149227     -367.12229991
  entropy T*S    EENTRO =         0.00000000
  eigenvalues    EBANDS =      -141.94174757
  atomic energy  EATOM  =       579.07123046
  ---------------------------------------------------
  free energy    TOTEN  =       -14.68782581 eV

  energy without entropy =      -14.68782581  energy(sigma->0) =      -14.68782581


--------------------------------------------------------------------------------------------------------




----------------------------------------- Iteration    1(  13)  ---------------------------------------


    POTLOK:  cpu time    0.25: real time    0.25
    SETDIJ:  cpu time    0.00: real time    0.01
     EDDAV:  cpu time    0.04: real time    0.04
       DOS:  cpu time    0.00: real time    0.00
    --------------------------------------------
      LOOP:  cpu time    0.30: real time    0.31

 eigenvalue-minimisations  :     6
 total energy-change (2. order) :-0.7982310E-04  (-0.2350673E-05)
 number of electron       9.9999918 magnetization 
 augmentation part        0.6127817 magnetization 

 Free energy of the ion-electron system (eV)
  ---------------------------------------------------
  alpha Z        PSCENC =         2.01506880
  Ewald energy   TEWEN  =       -47.36045935
  -1/2 Hartree   DENC   =      -444.13870794
  -exchange  EXHF       =         0.00000000
  -V(xc)+E(xc)   XCENC  =        40.58008162
  PAW double counting   =       364.18531014     -367.09769455
  entropy T*S    EENTRO =         0.00000000
  eigenvalues    EBANDS =      -141.94273480
  atomic energy  EATOM  =       579.07123046
  ---------------------------------------------------
  free energy    TOTEN  =       -14.68790563 eV

  energy without entropy =      -14.68790563  energy(sigma->0) =      -14.68790563


--------------------------------------------------------------------------------------------------------




 average (electrostatic) potential at core
  the test charge radii are     0.6991  0.7215
  (the norm of the test charge is              1.0000)
       1 -61.3454       2 -82.8501
 
 
 
 E-fermi :  -8.4709     XC(G=0):  -2.4803     alpha+bet : -0.8115


 k-point   1 :       0.0000    0.0000    0.0000
  band No.  band energies     occupation 
      1     -27.8157      2.00000
      2     -13.4328      2.00000
      3     -10.6007      2.00000
      4     -10.6007      2.00000
      5      -8.5215      2.00000
      6      -1.9046      0.00000


--------------------------------------------------------------------------------------------------------


 soft charge-density along one line, spin component           1
         0         1         2         3         4         5         6         7         8         9
 total charge-density along one line
 
 pseudopotential strength for first ion, spin component:           1
 10.380   0.025   0.000   0.000   0.018   0.000   0.000  -0.016
  0.025  -0.001   0.000   0.000  -0.001   0.000   0.000   0.000
  0.000   0.000  -4.539   0.000   0.000  -0.008   0.000   0.000
  0.000   0.000   0.000  -4.539   0.000   0.000  -0.008   0.000
  0.018  -0.001   0.000   0.000  -4.533   0.000   0.000  -0.014
  0.000   0.000  -0.008   0.000   0.000  -0.776   0.000   0.000
  0.000   0.000   0.000  -0.008   0.000   0.000  -0.776   0.000
 -0.016   0.000   0.000   0.000  -0.014   0.000   0.000  -0.775
 total augmentation occupancy for first ion, spin component:           1
  1.866  -0.419   0.000   0.000  -0.216   0.000   0.000   0.084
 -0.419   0.964   0.000   0.000  -0.786   0.000   0.000  -0.259
  0.000   0.000   0.560   0.000   0.000   0.086   0.000   0.000
  0.000   0.000   0.000   0.560   0.000   0.000   0.086   0.000
 -0.216  -0.786   0.000   0.000   1.367   0.000   0.000   0.262
  0.000   0.000   0.086   0.000   0.000   0.013   0.000   0.000
  0.000   0.000   0.000   0.086   0.000   0.000   0.013   0.000
  0.084  -0.259   0.000   0.000   0.262   0.000   0.000   0.073


------------------------ aborting loop because EDIFF is reached ----------------------------------------


    CHARGE:  cpu time    0.03: real time    0.03
    FORLOC:  cpu time    0.02: real time    0.02
    FORNL :  cpu time    0.01: real time    0.01
    STRESS:  cpu time    0.07: real time    0.07
    FORHAR:  cpu time    0.08: real time    0.08
    MIXING:  cpu time    0.01: real time    0.01

  FORCE on cell =-STRESS in cart. coord.  units (eV):
  Direction    XX          YY          ZZ          XY          YZ          ZX
  --------------------------------------------------------------------------------------
  Alpha Z     2.01507     2.01507     2.01507
  Ewald     183.95357  -115.65705  -115.65705     0.00000     0.00000     0.00000
  Hartree   227.13038   108.50308   108.50308     0.00000     0.00000     0.00000
  E(xc)     -42.09168   -43.24727   -43.24727     0.00000     0.00000     0.00000
  Local    -529.12220  -130.56220  -130.56220     0.00000     0.00000     0.00000
  n-local   -28.53335   -18.24118   -18.24124     0.00000     0.00017     0.00000
  augment     5.88386     6.09822     6.09822     0.00000     0.00000     0.00000
  Kinetic   171.79528   188.71527   188.71548     0.00000    -0.00059     0.00000
  Fock        0.00000     0.00000     0.00000     0.00000     0.00000     0.00000
  -------------------------------------------------------------------------------------
  Total      -8.96908    -2.37599    -2.37599     0.00000     0.00000     0.00000
  in kB     -66.52804   -17.62390   -17.62390     0.00000     0.00000     0.00000
  external pressure =      -33.93 kB  Pullay stress =        0.00 kB


 VOLUME and BASIS-vectors are now :
 -----------------------------------------------------------------------------
  energy-cutoff  :      350.00
  volume of cell :      216.00
      direct lattice vectors                 reciprocal lattice vectors
     6.000000000  0.000000000  0.000000000     0.166666667  0.000000000  0.000000000
     0.000000000  6.000000000  0.000000000     0.000000000  0.166666667  0.000000000
     0.000000000  0.000000000  6.000000000     0.000000000  0.000000000  0.166666667

  length of vectors
     6.000000000  6.000000000  6.000000000     0.166666667  0.166666667  0.166666667


 FORCES acting on ions
    electron-ion (+dipol)            ewald-force                    non-local-force                 convergence-correction
 -----------------------------------------------------------------------------------------------
   0.209E+03 0.801E-15 -.944E-14   -.231E+03 -.529E-16 0.438E-17   0.275E+02 0.424E-21 0.000E+00   -.591E-02 -.230E-13 -.110E-13
   -.180E+03 0.235E-14 0.213E-04   0.231E+03 -.570E-16 0.688E-16   -.557E+02 0.169E-20 0.000E+00   -.143E-01 -.548E-13 -.563E-13
 -----------------------------------------------------------------------------------------------
   0.282E+02 0.315E-14 0.213E-04   0.000E+00 -.110E-15 0.732E-16   -.282E+02 0.212E-20 0.000E+00   -.202E-01 -.778E-13 -.672E-13
 
 
 POSITION                                       TOTAL-FORCE (eV/Angst)
 -----------------------------------------------------------------------------------
      0.00000      0.00000      0.00000         5.095488      0.000000      0.000000
      1.20000      0.00000      0.00000        -5.095488      0.000000      0.000000
 -----------------------------------------------------------------------------------
    total drift:                               -0.000689      0.000000      0.000021


--------------------------------------------------------------------------------------------------------



  FREE ENERGIE OF THE ION-ELECTRON SYSTEM (eV)
  ---------------------------------------------------
  free  energy   TOTEN  =       -14.687906 eV

  energy  without entropy=      -14.687906  energy(sigma->0) =      -14.687906
 


--------------------------------------------------------------------------------------------------------


    POTLOK:  cpu time    0.26: real time    0.26


--------------------------------------------------------------------------------------------------------


 writing wavefunctions
     LOOP+:  cpu time    4.36: real time    4.67
    4ORBIT:  cpu time    0.00: real time    0.00

 total amount of memory used by VASP on root node    47991. kBytes
========================================================================

   base      :      30000. kBytes
   nonl-proj :        510. kBytes
   fftplans  :       6192. kBytes
   grid      :      10976. kBytes
   one-center:          6. kBytes
   wavefun   :        307. kBytes
 
  
  
 General timing and accounting informations for this job:
 ========================================================
  
                  Total CPU time used (sec):        5.027
                            User time (sec):        4.881
                          System time (sec):        0.146
                         Elapsed time (sec):        5.430
  
                   Maximum memory used (kb):           0.
                   Average memory used (kb):           0.
  
                          Minor page faults:        27564
                          Major page faults:            0
                 Voluntary context switches:          493
