<?xml version="1.0" encoding="ISO-8859-1"?>
<modeling>
 <generator>
  <i name="program" type="string">vasp </i>
  <i name="version" type="string">5.2.12  </i>
  <i name="subversion" type="string">11Nov11 complex                                                      parallel </i>
  <i name="platform" type="string">LinuxIFC </i>
  <i name="date" type="string">2012 11 28 </i>
  <i name="time" type="string">14:00:03 </i>
 </generator>
 <incar>
  <i type="string" name="PREC">normal</i>
  <i name="ENCUT">    350.00000000</i>
  <i type="int" name="NBANDS">     6</i>
  <i type="int" name="ISMEAR">     1</i>
  <i name="SIGMA">      0.01000000</i>
 </incar>
 <kpoints>
  <generation param="Monkhorst-Pack">
   <v type="int" name="divisions">       1        1        1 </v>
   <v name="usershift">      0.00000000       0.00000000       0.00000000 </v>
   <v name="genvec1">      1.00000000       0.00000000       0.00000000 </v>
   <v name="genvec2">      0.00000000       1.00000000       0.00000000 </v>
   <v name="genvec3">      0.00000000       0.00000000       1.00000000 </v>
   <v name="shift">      0.00000000       0.00000000       0.00000000 </v>
  </generation>
  <varray name="kpointlist" >
   <v>       0.00000000       0.00000000       0.00000000 </v>
  </varray>
  <varray name="weights" >
   <v>       1.00000000 </v>
  </varray>
 </kpoints>
 <parameters>
  <separator name="general" >
   <i type="string" name="SYSTEM">unknown system</i>
   <i type="logical" name="LCOMPAT"> F  </i>
  </separator>
  <separator name="electronic" >
   <i type="string" name="PREC">normal</i>
   <i name="ENMAX">    350.00000000</i>
   <i name="ENAUG">    644.87300000</i>
   <i name="EDIFF">      0.00010000</i>
   <i type="int" name="IALGO">    38</i>
   <i type="int" name="IWAVPR">    10</i>
   <i type="int" name="NBANDS">     6</i>
   <i name="NELECT">     10.00000000</i>
   <i type="int" name="TURBO">     0</i>
   <i type="int" name="IRESTART">     0</i>
   <i type="int" name="NREBOOT">     0</i>
   <i type="int" name="NMIN">     0</i>
   <i name="EREF">      0.00000000</i>
   <separator name="electronic smearing" >
    <i type="int" name="ISMEAR">     1</i>
    <i name="SIGMA">      0.01000000</i>
    <i name="KSPACING">      0.50000000</i>
    <i type="logical" name="KGAMMA"> T  </i>
   </separator>
   <separator name="electronic projectors" >
    <i type="logical" name="LREAL"> F  </i>
    <v name="ROPT">      0.00000000      0.00000000</v>
    <i type="int" name="LMAXPAW">  -100</i>
    <i type="int" name="LMAXMIX">     2</i>
    <i type="logical" name="NLSPLINE"> F  </i>
   </separator>
   <separator name="electronic startup" >
    <i type="int" name="ISTART">     0</i>
    <i type="int" name="ICHARG">     2</i>
    <i type="int" name="INIWAV">     1</i>
   </separator>
   <separator name="electronic spin" >
    <i type="int" name="ISPIN">     1</i>
    <i type="logical" name="LNONCOLLINEAR"> F  </i>
    <v name="MAGMOM">      1.00000000      1.00000000</v>
    <i name="NUPDOWN">     -1.00000000</i>
    <i type="logical" name="LSORBIT"> F  </i>
    <v name="SAXIS">      0.00000000      0.00000000      1.00000000</v>
    <i type="logical" name="LSPIRAL"> F  </i>
    <v name="QSPIRAL">      0.00000000      0.00000000      0.00000000</v>
    <i type="logical" name="LZEROZ"> F  </i>
   </separator>
   <separator name="electronic exchange-correlation" >
    <i type="logical" name="LASPH"> F  </i>
    <i type="logical" name="LMETAGGA"> F  </i>
   </separator>
   <separator name="electronic convergence" >
    <i type="int" name="NELM">    60</i>
    <i type="int" name="NELMDL">    -5</i>
    <i type="int" name="NELMIN">     2</i>
    <i name="ENINI">    350.00000000</i>
    <separator name="electronic convergence detail" >
     <i type="logical" name="LDIAG"> T  </i>
     <i type="logical" name="LSUBROT"> T  </i>
     <i name="WEIMIN">      0.00000000</i>
     <i name="EBREAK">      0.00000417</i>
     <i name="DEPER">      0.30000000</i>
     <i type="int" name="NRMM">     4</i>
     <i name="TIME">      0.40000000</i>
    </separator>
   </separator>
   <separator name="electronic mixer" >
    <i name="AMIX">      0.40000000</i>
    <i name="BMIX">      1.00000000</i>
    <i name="AMIN">      0.10000000</i>
    <i name="AMIX_MAG">      1.60000000</i>
    <i name="BMIX_MAG">      1.00000000</i>
    <separator name="electronic mixer details" >
     <i type="int" name="IMIX">     4</i>
     <i type="int" name="MAXMIX">   -45</i>
     <i name="WC">    100.00000000</i>
     <i type="int" name="INIMIX">     1</i>
     <i type="int" name="MIXPRE">     1</i>
     <i type="int" name="MREMOVE">     5</i>
    </separator>
   </separator>
   <separator name="electronic dipolcorrection" >
    <i type="logical" name="LDIPOL"> F  </i>
    <i type="logical" name="LMONO"> F  </i>
    <i type="int" name="IDIPOL">     0</i>
    <i name="EPSILON">      1.00000000</i>
    <v name="DIPOL">   -100.00000000   -100.00000000   -100.00000000</v>
    <i name="EFIELD">      0.00000000</i>
   </separator>
  </separator>
  <separator name="grids" >
   <i type="int" name="NGX">    28</i>
   <i type="int" name="NGY">    28</i>
   <i type="int" name="NGZ">    28</i>
   <i type="int" name="NGXF">    56</i>
   <i type="int" name="NGYF">    56</i>
   <i type="int" name="NGZF">    56</i>
   <i type="logical" name="ADDGRID"> F  </i>
  </separator>
  <separator name="ionic" >
   <i type="int" name="NSW">     0</i>
   <i type="int" name="IBRION">    -1</i>
   <i type="int" name="ISIF">     2</i>
   <i name="PSTRESS">      0.00000000</i>
   <i name="EDIFFG">      0.00100000</i>
   <i type="int" name="NFREE">     0</i>
   <i name="POTIM">      0.50000000</i>
   <i name="SMASS">     -3.00000000</i>
   <i name="SCALEE">      1.00000000</i>
  </separator>
  <separator name="ionic md" >
   <i name="TEBEG">      0.00010000</i>
   <i name="TEEND">      0.00010000</i>
   <i type="int" name="NBLOCK">     1</i>
   <i type="int" name="KBLOCK">     1</i>
   <i type="int" name="NPACO">   256</i>
   <i name="APACO">     16.00000000</i>
  </separator>
  <separator name="symmetry" >
   <i type="int" name="ISYM">     2</i>
   <i name="SYMPREC">      0.00001000</i>
  </separator>
  <separator name="dos" >
   <i type="logical" name="LORBIT"> F  </i>
   <v name="RWIGS">     -1.00000000     -1.00000000</v>
   <i type="int" name="NEDOS">   301</i>
   <i name="EMIN">     10.00000000</i>
   <i name="EMAX">    -10.00000000</i>
   <i name="EFERMI">      0.00000000</i>
  </separator>
  <separator name="writing" >
   <i type="int" name="NWRITE">     2</i>
   <i type="logical" name="LWAVE"> T  </i>
   <i type="logical" name="LCHARG"> T  </i>
   <i type="logical" name="LPARD"> F  </i>
   <i type="logical" name="LVTOT"> F  </i>
   <i type="logical" name="LVHAR"> F  </i>
   <i type="logical" name="LELF"> F  </i>
   <i type="logical" name="LOPTICS"> F  </i>
   <v name="STM">      0.00000000      0.00000000      0.00000000      0.00000000      0.00000000      0.00000000      0.00000000</v>
  </separator>
  <separator name="performance" >
   <i type="int" name="NPAR">     1</i>
   <i type="int" name="NSIM">     4</i>
   <i type="int" name="NBLK">    -1</i>
   <i type="logical" name="LPLANE"> T  </i>
   <i type="logical" name="LSCALAPACK"> F  </i>
   <i type="logical" name="LSCAAWARE"> F  </i>
   <i type="logical" name="LSCALU"> F  </i>
   <i type="logical" name="LASYNC"> F  </i>
   <i type="logical" name="LORBITALREAL"> F  </i>
  </separator>
  <separator name="miscellaneous" >
   <i type="int" name="IDIOT">     3</i>
   <i type="logical" name="LMUSIC"> F  </i>
   <v name="POMASS">     12.01100000     16.00000000</v>
   <v name="DARWINR">      0.00000000      0.00000000</v>
   <v name="DARWINV">      1.00000000      1.00000000</v>
   <i type="logical" name="LCORR"> T  </i>
  </separator>
  <i type="logical" name="GGA_COMPAT"> T  </i>
  <i type="logical" name="LBERRY"> F  </i>
  <i type="int" name="ICORELEVEL">     0</i>
  <i type="logical" name="LDAU"> F  </i>
  <i type="int" name="I_CONSTRAINED_M">     0</i>
  <separator name="electronic exchange-correlation" >
   <i type="string" name="GGA">--</i>
   <i type="int" name="VOSKOWN">     0</i>
   <i type="logical" name="LHFCALC"> F  </i>
   <i type="string" name="PRECFOCK"></i>
   <i type="logical" name="LHFONE"> F  </i>
   <i type="logical" name="LRHFCALC"> F  </i>
   <i type="logical" name="LTHOMAS"> F  </i>
   <i type="logical" name="LMODELHF"> F  </i>
   <i name="ENCUT4O">     -1.00000000</i>
   <i type="int" name="EXXOEP">     0</i>
   <i type="int" name="FOURORBIT">     0</i>
   <i name="AEXX">      0.00000000</i>
   <i name="HFALPHA">      0.00000000</i>
   <i name="ALDAX">      1.00000000</i>
   <i name="AGGAX">      1.00000000</i>
   <i name="ALDAC">      1.00000000</i>
   <i name="AGGAC">      1.00000000</i>
   <i type="int" name="NKREDX">     1</i>
   <i type="int" name="NKREDY">     1</i>
   <i type="int" name="NKREDZ">     1</i>
   <i type="logical" name="SHIFTRED"> F  </i>
   <i type="logical" name="ODDONLY"> F  </i>
   <i type="logical" name="EVENONLY"> F  </i>
   <i type="int" name="LMAXFOCK">     0</i>
   <i type="int" name="NMAXFOCKAE">     0</i>
   <i type="logical" name="LFOCKAEDFT"> F  </i>
   <i name="HFSCREEN">      0.00000000</i>
   <i name="HFSCREENC">      0.00000000</i>
  </separator>
  <separator name="vdW DFT" >
   <i type="logical" name="LUSE_VDW"> F  </i>
   <i name="Zab_VDW">     -0.84910000</i>
   <i name="PARAM1">      0.12340000</i>
   <i name="PARAM2">      1.00000000</i>
   <i name="PARAM3">      0.00000000</i>
  </separator>
  <separator name="model GW" >
   <i type="int" name="MODEL_GW">     0</i>
   <i name="MODEL_EPS0">     64.80000000</i>
   <i name="MODEL_ALPHA">      1.00000000</i>
  </separator>
  <separator name="linear response parameters" >
   <i type="logical" name="LEPSILON"> F  </i>
   <i type="logical" name="LRPA"> F  </i>
   <i type="logical" name="LNABLA"> F  </i>
   <i type="logical" name="LVEL"> F  </i>
   <i type="int" name="KINTER">     0</i>
   <i name="CSHIFT">      0.10000000</i>
   <i name="OMEGAMAX">     -1.00000000</i>
  </separator>
  <separator name="orbital magnetization" >
   <i type="logical" name="NUCIND"> F  </i>
   <v name="MAGPOS">      0.00000000      0.00000000      0.00000000</v>
   <i type="logical" name="LNICSALL"> T  </i>
   <i type="logical" name="ORBITALMAG"> F  </i>
   <i type="logical" name="LMAGBLOCH"> F  </i>
   <i type="logical" name="LCHIMAG"> F  </i>
   <i type="logical" name="LGAUGE"> T  </i>
   <i type="int" name="MAGATOM">     0</i>
   <v name="MAGDIPOL">      0.00000000      0.00000000      0.00000000</v>
   <v name="AVECCONST">      0.00000000      0.00000000      0.00000000</v>
  </separator>
  <separator name="response functions" >
   <i type="logical" name="LADDER"> F  </i>
   <i type="logical" name="LHARTREE"> T  </i>
   <i type="int" name="IBSE">     0</i>
   <i type="logical" name="LTCTE"> F  </i>
   <i type="logical" name="LTETE"> F  </i>
   <i type="logical" name="LFXCEPS"> F  </i>
   <i type="logical" name="L2ORDER"> F  </i>
   <i type="logical" name="LUSEW"> F  </i>
   <i name="ENCUTGW">     -2.00000000</i>
   <i name="ENCUTGWSOFT">     -2.00000000</i>
   <i name="ENCUTLF">     -1.00000000</i>
   <i type="int" name="LMAXMP2">    -1</i>
   <i name="SCISSOR">      0.00000000</i>
   <i type="int" name="NOMEGA">     0</i>
   <i type="int" name="NOMEGAR">     0</i>
   <i type="int" name="NBANDSGW">    -1</i>
   <i type="int" name="NBANDSO">    -1</i>
   <i type="int" name="NBANDSV">    -1</i>
   <i name="OPTEMAX">      0.00000000</i>
   <i type="int" name="NELM">     1</i>
   <i type="int" name="DIM">     3</i>
   <i type="int" name="ANTIRES">     0</i>
   <i name="OMEGAMAX">    -30.00000000</i>
   <i name="OMEGATL">   -200.00000000</i>
   <i type="int" name="OMEGAGRID">     0</i>
   <i name="CSHIFT">     -0.10000000</i>
   <i type="logical" name="SELFENERGY"> F  </i>
   <i type="logical" name="LSPECTRAL"> F  </i>
   <i type="logical" name="ODDONLYGW"> F  </i>
   <i type="logical" name="EVENONLYGW"> F  </i>
   <i type="int" name="NKREDLFX">     1</i>
   <i type="int" name="NKREDLFY">     1</i>
   <i type="int" name="NKREDLFZ">     1</i>
   <i type="int" name="MAXMEM">  1800</i>
   <i type="int" name="TELESCOPE">     0</i>
  </separator>
 </parameters>
 <atominfo>
  <atoms>       2 </atoms>
  <types>       2 </types>
  <array name="atoms" >
   <dimension dim="1">ion</dimension>
   <field type="string">element</field>
   <field type="int">atomtype</field>
   <set>
    <rc><c>C </c><c>   1</c></rc>
    <rc><c>O </c><c>   2</c></rc>
   </set>
  </array>
  <array name="atomtypes" >
   <dimension dim="1">type</dimension>
   <field type="int">atomspertype</field>
   <field type="string">element</field>
   <field>mass</field>
   <field>valence</field>
   <field type="string">pseudopotential</field>
   <set>
    <rc><c>   1</c><c>C </c><c>     12.01100000</c><c>      4.00000000</c><c> PAW_PBE C 08Apr2002                    </c></rc>
    <rc><c>   1</c><c>O </c><c>     16.00000000</c><c>      6.00000000</c><c> PAW_PBE O 08Apr2002                    </c></rc>
   </set>
  </array>
 </atominfo>
 <structure name="initialpos" >
  <crystal>
   <varray name="basis" >
    <v>       6.00000000       0.00000000       0.00000000 </v>
    <v>       0.00000000       6.00000000       0.00000000 </v>
    <v>       0.00000000       0.00000000       6.00000000 </v>
   </varray>
   <i name="volume">    216.00000000 </i>
   <varray name="rec_basis" >
    <v>       0.16666667       0.00000000       0.00000000 </v>
    <v>       0.00000000       0.16666667       0.00000000 </v>
    <v>       0.00000000       0.00000000       0.16666667 </v>
   </varray>
  </crystal>
  <varray name="positions" >
   <v>       0.00000000       0.00000000       0.00000000 </v>
   <v>       0.20000000       0.00000000       0.00000000 </v>
  </varray>
 </structure>
 <calculation>
  <scstep>
   <time name="dav">    0.07    0.07</time>
   <time name="total">    0.33    0.33</time>
   <energy>
    <i name="alphaZ">      2.01506880 </i>
    <i name="ewald">    -47.36045935 </i>
    <i name="hartreedc">   -427.92920097 </i>
    <i name="XCdc">     39.59676765 </i>
    <i name="pawpsdc">    283.82984571 </i>
    <i name="pawaedc">   -286.83001101 </i>
    <i name="eentropy">      0.00000000 </i>
    <i name="bandstr">    -79.17584877 </i>
    <i name="atom">    579.07123046 </i>
    <i name="e_fr_energy">     63.21739253 </i>
    <i name="e_wo_entrp">     63.21739253 </i>
    <i name="e_0_energy">     63.21739253 </i>
   </energy>
  </scstep>
  <scstep>
   <time name="dav">    0.09    0.09</time>
   <time name="total">    0.09    0.09</time>
   <energy>
    <i name="e_fr_energy">     -5.19092315 </i>
    <i name="e_wo_entrp">     -5.19092315 </i>
    <i name="e_0_energy">     -5.19092315 </i>
   </energy>
  </scstep>
  <scstep>
   <time name="dav">    0.06    0.06</time>
   <time name="total">    0.06    0.08</time>
   <energy>
    <i name="e_fr_energy">    -14.85074146 </i>
    <i name="e_wo_entrp">    -14.85074146 </i>
    <i name="e_0_energy">    -14.85074146 </i>
   </energy>
  </scstep>
  <scstep>
   <time name="dav">    0.11    0.11</time>
   <time name="total">    0.11    0.12</time>
   <energy>
    <i name="e_fr_energy">    -15.28363040 </i>
    <i name="e_wo_entrp">    -15.28421019 </i>
    <i name="e_0_energy">    -15.28382367 </i>
   </energy>
  </scstep>
  <scstep>
   <time name="dav">    0.06    0.06</time>
   <time name="total">    0.10    0.12</time>
   <energy>
    <i name="e_fr_energy">    -15.28481132 </i>
    <i name="e_wo_entrp">    -15.28481132 </i>
    <i name="e_0_energy">    -15.28481132 </i>
   </energy>
  </scstep>
  <scstep>
   <time name="dav">    0.06    0.06</time>
   <time name="total">    0.36    0.37</time>
   <energy>
    <i name="e_fr_energy">    -14.81978078 </i>
    <i name="e_wo_entrp">    -14.82036057 </i>
    <i name="e_0_energy">    -14.81997404 </i>
   </energy>
  </scstep>
  <scstep>
   <time name="dav">    0.09    0.09</time>
   <time name="total">    0.38    0.40</time>
   <energy>
    <i name="e_fr_energy">    -14.71941265 </i>
    <i name="e_wo_entrp">    -14.71999245 </i>
    <i name="e_0_energy">    -14.71960592 </i>
   </energy>
  </scstep>
  <scstep>
   <time name="dav">    0.06    0.06</time>
   <time name="total">    0.36    0.41</time>
   <energy>
    <i name="e_fr_energy">    -14.68572294 </i>
    <i name="e_wo_entrp">    -14.68630273 </i>
    <i name="e_0_energy">    -14.68591620 </i>
   </energy>
  </scstep>
  <scstep>
   <time name="dav">    0.09    0.09</time>
   <time name="total">    0.38    0.40</time>
   <energy>
    <i name="e_fr_energy">    -14.68648999 </i>
    <i name="e_wo_entrp">    -14.68648999 </i>
    <i name="e_0_energy">    -14.68648999 </i>
   </energy>
  </scstep>
  <scstep>
   <time name="dav">    0.06    0.06</time>
   <time name="total">    0.36    0.41</time>
   <energy>
    <i name="e_fr_energy">    -14.68663097 </i>
    <i name="e_wo_entrp">    -14.68663097 </i>
    <i name="e_0_energy">    -14.68663097 </i>
   </energy>
  </scstep>
  <scstep>
   <time name="dav">    0.06    0.06</time>
   <time name="total">    0.36    0.37</time>
   <energy>
    <i name="e_fr_energy">    -14.68757708 </i>
    <i name="e_wo_entrp">    -14.68757708 </i>
    <i name="e_0_energy">    -14.68757708 </i>
   </energy>
  </scstep>
  <scstep>
   <time name="dav">    0.04    0.04</time>
   <time name="total">    0.34    0.35</time>
   <energy>
    <i name="e_fr_energy">    -14.68782581 </i>
    <i name="e_wo_entrp">    -14.68782581 </i>
    <i name="e_0_energy">    -14.68782581 </i>
   </energy>
  </scstep>
  <scstep>
   <time name="dav">    0.04    0.04</time>
   <time name="total">    0.30    0.31</time>
   <energy>
    <i name="alphaZ">      2.01506880 </i>
    <i name="ewald">    -47.36045935 </i>
    <i name="hartreedc">   -444.13870794 </i>
    <i name="XCdc">     40.58008162 </i>
    <i name="pawpsdc">    364.18531014 </i>
    <i name="pawaedc">   -367.09769455 </i>
    <i name="eentropy">      0.00000000 </i>
    <i name="bandstr">   -141.94273480 </i>
    <i name="atom">    579.07123046 </i>
    <i name="e_fr_energy">    -14.68790563 </i>
    <i name="e_wo_entrp">    -14.68790563 </i>
    <i name="e_0_energy">    -14.68790563 </i>
   </energy>
  </scstep>
  <parameters_embedded>
   <separator name="dft+d2" >
    <i type="logical" name="LVDW"> F  </i>
   </separator>
  </parameters_embedded>
  <structure>
   <crystal>
    <varray name="basis" >
     <v>       6.00000000       0.00000000       0.00000000 </v>
     <v>       0.00000000       6.00000000       0.00000000 </v>
     <v>       0.00000000       0.00000000       6.00000000 </v>
    </varray>
    <i name="volume">    216.00000000 </i>
    <varray name="rec_basis" >
     <v>       0.16666667       0.00000000       0.00000000 </v>
     <v>       0.00000000       0.16666667       0.00000000 </v>
     <v>       0.00000000       0.00000000       0.16666667 </v>
    </varray>
   </crystal>
   <varray name="positions" >
    <v>       0.00000000       0.00000000       0.00000000 </v>
    <v>       0.20000000       0.00000000       0.00000000 </v>
   </varray>
  </structure>
  <varray name="forces" >
   <v>       5.09548802       0.00000000       0.00000000 </v>
   <v>      -5.09548802       0.00000000       0.00000000 </v>
  </varray>
  <varray name="stress" >
   <v>     -66.52803986       0.00000000       0.00000000 </v>
   <v>       0.00000000     -17.62389951       0.00000000 </v>
   <v>       0.00000000       0.00000000     -17.62389951 </v>
  </varray>
  <energy>
   <i name="e_fr_energy">    -14.68790563 </i>
   <i name="e_wo_entrp">    -14.68790563 </i>
   <i name="e_0_energy">      0.00000000 </i>
  </energy>
  <time name="totalsc">    4.36    4.67</time>
  <eigenvalues>
   <array>
    <dimension dim="1">band</dimension>
    <dimension dim="2">kpoint</dimension>
    <dimension dim="3">spin</dimension>
    <field>eigene</field>
    <field>occ</field>
    <set>
     <set comment="spin 1">
      <set comment="kpoint 1">
       <r>  -27.8157    1.0000 </r>
       <r>  -13.4328    1.0000 </r>
       <r>  -10.6007    1.0000 </r>
       <r>  -10.6007    1.0000 </r>
       <r>   -8.5215    1.0000 </r>
       <r>   -1.9046    0.0000 </r>
      </set>
     </set>
    </set>
   </array>
  </eigenvalues>
  <separator name="orbital magnetization" >
   <v name="MAGDIPOLOUT">      0.00000000      0.00000000      0.00000000</v>
  </separator>
  <dos>
   <i name="efermi">     -8.47087857 </i>
   <total>
    <array>
     <dimension dim="1">gridpoints</dimension>
     <dimension dim="2">spin</dimension>
     <field>energy</field>
     <field>total</field>
     <field>integrated</field>
     <set>
      <set comment="spin 1">
       <r>   -29.1112     0.0000     0.0000 </r>
       <r>   -29.0162     0.0000     0.0000 </r>
       <r>   -28.9212     0.0000     0.0000 </r>
       <r>   -28.8262     0.0000     0.0000 </r>
       <r>   -28.7312     0.0000     0.0000 </r>
       <r>   -28.6362     0.0000     0.0000 </r>
       <r>   -28.5412     0.0000     0.0000 </r>
       <r>   -28.4462     0.0000     0.0000 </r>
       <r>   -28.3512     0.0000     0.0000 </r>
       <r>   -28.2562     0.0000     0.0000 </r>
       <r>   -28.1612     0.0000     0.0000 </r>
       <r>   -28.0661     0.0000     0.0000 </r>
       <r>   -27.9711     0.0000     0.0000 </r>
       <r>   -27.8761     0.0000     0.0000 </r>
       <r>   -27.7811    21.0511     2.0000 </r>
       <r>   -27.6861     0.0000     2.0000 </r>
       <r>   -27.5911     0.0000     2.0000 </r>
       <r>   -27.4961     0.0000     2.0000 </r>
       <r>   -27.4011     0.0000     2.0000 </r>
       <r>   -27.3061     0.0000     2.0000 </r>
       <r>   -27.2111     0.0000     2.0000 </r>
       <r>   -27.1161     0.0000     2.0000 </r>
       <r>   -27.0211     0.0000     2.0000 </r>
       <r>   -26.9261     0.0000     2.0000 </r>
       <r>   -26.8311     0.0000     2.0000 </r>
       <r>   -26.7360     0.0000     2.0000 </r>
       <r>   -26.6410     0.0000     2.0000 </r>
       <r>   -26.5460     0.0000     2.0000 </r>
       <r>   -26.4510     0.0000     2.0000 </r>
       <r>   -26.3560     0.0000     2.0000 </r>
       <r>   -26.2610     0.0000     2.0000 </r>
       <r>   -26.1660     0.0000     2.0000 </r>
       <r>   -26.0710     0.0000     2.0000 </r>
       <r>   -25.9760     0.0000     2.0000 </r>
       <r>   -25.8810     0.0000     2.0000 </r>
       <r>   -25.7860     0.0000     2.0000 </r>
       <r>   -25.6910     0.0000     2.0000 </r>
       <r>   -25.5960     0.0000     2.0000 </r>
       <r>   -25.5009     0.0000     2.0000 </r>
       <r>   -25.4059     0.0000     2.0000 </r>
       <r>   -25.3109     0.0000     2.0000 </r>
       <r>   -25.2159     0.0000     2.0000 </r>
       <r>   -25.1209     0.0000     2.0000 </r>
       <r>   -25.0259     0.0000     2.0000 </r>
       <r>   -24.9309     0.0000     2.0000 </r>
       <r>   -24.8359     0.0000     2.0000 </r>
       <r>   -24.7409     0.0000     2.0000 </r>
       <r>   -24.6459     0.0000     2.0000 </r>
       <r>   -24.5509     0.0000     2.0000 </r>
       <r>   -24.4559     0.0000     2.0000 </r>
       <r>   -24.3609     0.0000     2.0000 </r>
       <r>   -24.2659     0.0000     2.0000 </r>
       <r>   -24.1708     0.0000     2.0000 </r>
       <r>   -24.0758     0.0000     2.0000 </r>
       <r>   -23.9808     0.0000     2.0000 </r>
       <r>   -23.8858     0.0000     2.0000 </r>
       <r>   -23.7908     0.0000     2.0000 </r>
       <r>   -23.6958     0.0000     2.0000 </r>
       <r>   -23.6008     0.0000     2.0000 </r>
       <r>   -23.5058     0.0000     2.0000 </r>
       <r>   -23.4108     0.0000     2.0000 </r>
       <r>   -23.3158     0.0000     2.0000 </r>
       <r>   -23.2208     0.0000     2.0000 </r>
       <r>   -23.1258     0.0000     2.0000 </r>
       <r>   -23.0308     0.0000     2.0000 </r>
       <r>   -22.9358     0.0000     2.0000 </r>
       <r>   -22.8407     0.0000     2.0000 </r>
       <r>   -22.7457     0.0000     2.0000 </r>
       <r>   -22.6507     0.0000     2.0000 </r>
       <r>   -22.5557     0.0000     2.0000 </r>
       <r>   -22.4607     0.0000     2.0000 </r>
       <r>   -22.3657     0.0000     2.0000 </r>
       <r>   -22.2707     0.0000     2.0000 </r>
       <r>   -22.1757     0.0000     2.0000 </r>
       <r>   -22.0807     0.0000     2.0000 </r>
       <r>   -21.9857     0.0000     2.0000 </r>
       <r>   -21.8907     0.0000     2.0000 </r>
       <r>   -21.7957     0.0000     2.0000 </r>
       <r>   -21.7007     0.0000     2.0000 </r>
       <r>   -21.6056     0.0000     2.0000 </r>
       <r>   -21.5106     0.0000     2.0000 </r>
       <r>   -21.4156     0.0000     2.0000 </r>
       <r>   -21.3206     0.0000     2.0000 </r>
       <r>   -21.2256     0.0000     2.0000 </r>
       <r>   -21.1306     0.0000     2.0000 </r>
       <r>   -21.0356     0.0000     2.0000 </r>
       <r>   -20.9406     0.0000     2.0000 </r>
       <r>   -20.8456     0.0000     2.0000 </r>
       <r>   -20.7506     0.0000     2.0000 </r>
       <r>   -20.6556     0.0000     2.0000 </r>
       <r>   -20.5606     0.0000     2.0000 </r>
       <r>   -20.4656     0.0000     2.0000 </r>
       <r>   -20.3706     0.0000     2.0000 </r>
       <r>   -20.2755     0.0000     2.0000 </r>
       <r>   -20.1805     0.0000     2.0000 </r>
       <r>   -20.0855     0.0000     2.0000 </r>
       <r>   -19.9905     0.0000     2.0000 </r>
       <r>   -19.8955     0.0000     2.0000 </r>
       <r>   -19.8005     0.0000     2.0000 </r>
       <r>   -19.7055     0.0000     2.0000 </r>
       <r>   -19.6105     0.0000     2.0000 </r>
       <r>   -19.5155     0.0000     2.0000 </r>
       <r>   -19.4205     0.0000     2.0000 </r>
       <r>   -19.3255     0.0000     2.0000 </r>
       <r>   -19.2305     0.0000     2.0000 </r>
       <r>   -19.1355     0.0000     2.0000 </r>
       <r>   -19.0404     0.0000     2.0000 </r>
       <r>   -18.9454     0.0000     2.0000 </r>
       <r>   -18.8504     0.0000     2.0000 </r>
       <r>   -18.7554     0.0000     2.0000 </r>
       <r>   -18.6604     0.0000     2.0000 </r>
       <r>   -18.5654     0.0000     2.0000 </r>
       <r>   -18.4704     0.0000     2.0000 </r>
       <r>   -18.3754     0.0000     2.0000 </r>
       <r>   -18.2804     0.0000     2.0000 </r>
       <r>   -18.1854     0.0000     2.0000 </r>
       <r>   -18.0904     0.0000     2.0000 </r>
       <r>   -17.9954     0.0000     2.0000 </r>
       <r>   -17.9004     0.0000     2.0000 </r>
       <r>   -17.8054     0.0000     2.0000 </r>
       <r>   -17.7103     0.0000     2.0000 </r>
       <r>   -17.6153     0.0000     2.0000 </r>
       <r>   -17.5203     0.0000     2.0000 </r>
       <r>   -17.4253     0.0000     2.0000 </r>
       <r>   -17.3303     0.0000     2.0000 </r>
       <r>   -17.2353     0.0000     2.0000 </r>
       <r>   -17.1403     0.0000     2.0000 </r>
       <r>   -17.0453     0.0000     2.0000 </r>
       <r>   -16.9503     0.0000     2.0000 </r>
       <r>   -16.8553     0.0000     2.0000 </r>
       <r>   -16.7603     0.0000     2.0000 </r>
       <r>   -16.6653     0.0000     2.0000 </r>
       <r>   -16.5703     0.0000     2.0000 </r>
       <r>   -16.4752     0.0000     2.0000 </r>
       <r>   -16.3802     0.0000     2.0000 </r>
       <r>   -16.2852     0.0000     2.0000 </r>
       <r>   -16.1902     0.0000     2.0000 </r>
       <r>   -16.0952     0.0000     2.0000 </r>
       <r>   -16.0002     0.0000     2.0000 </r>
       <r>   -15.9052     0.0000     2.0000 </r>
       <r>   -15.8102     0.0000     2.0000 </r>
       <r>   -15.7152     0.0000     2.0000 </r>
       <r>   -15.6202     0.0000     2.0000 </r>
       <r>   -15.5252     0.0000     2.0000 </r>
       <r>   -15.4302     0.0000     2.0000 </r>
       <r>   -15.3352     0.0000     2.0000 </r>
       <r>   -15.2402     0.0000     2.0000 </r>
       <r>   -15.1451     0.0000     2.0000 </r>
       <r>   -15.0501     0.0000     2.0000 </r>
       <r>   -14.9551     0.0000     2.0000 </r>
       <r>   -14.8601     0.0000     2.0000 </r>
       <r>   -14.7651     0.0000     2.0000 </r>
       <r>   -14.6701     0.0000     2.0000 </r>
       <r>   -14.5751     0.0000     2.0000 </r>
       <r>   -14.4801     0.0000     2.0000 </r>
       <r>   -14.3851     0.0000     2.0000 </r>
       <r>   -14.2901     0.0000     2.0000 </r>
       <r>   -14.1951     0.0000     2.0000 </r>
       <r>   -14.1001     0.0000     2.0000 </r>
       <r>   -14.0051     0.0000     2.0000 </r>
       <r>   -13.9101     0.0000     2.0000 </r>
       <r>   -13.8150     0.0000     2.0000 </r>
       <r>   -13.7200     0.0000     2.0000 </r>
       <r>   -13.6250     0.0000     2.0000 </r>
       <r>   -13.5300     0.0000     2.0000 </r>
       <r>   -13.4350     6.6744     2.6341 </r>
       <r>   -13.3400     0.0000     4.0000 </r>
       <r>   -13.2450     0.0000     4.0000 </r>
       <r>   -13.1500     0.0000     4.0000 </r>
       <r>   -13.0550     0.0000     4.0000 </r>
       <r>   -12.9600     0.0000     4.0000 </r>
       <r>   -12.8650     0.0000     4.0000 </r>
       <r>   -12.7700     0.0000     4.0000 </r>
       <r>   -12.6750     0.0000     4.0000 </r>
       <r>   -12.5799     0.0000     4.0000 </r>
       <r>   -12.4849     0.0000     4.0000 </r>
       <r>   -12.3899     0.0000     4.0000 </r>
       <r>   -12.2949     0.0000     4.0000 </r>
       <r>   -12.1999     0.0000     4.0000 </r>
       <r>   -12.1049     0.0000     4.0000 </r>
       <r>   -12.0099     0.0000     4.0000 </r>
       <r>   -11.9149     0.0000     4.0000 </r>
       <r>   -11.8199     0.0000     4.0000 </r>
       <r>   -11.7249     0.0000     4.0000 </r>
       <r>   -11.6299     0.0000     4.0000 </r>
       <r>   -11.5349     0.0000     4.0000 </r>
       <r>   -11.4399     0.0000     4.0000 </r>
       <r>   -11.3449     0.0000     4.0000 </r>
       <r>   -11.2498     0.0000     4.0000 </r>
       <r>   -11.1548     0.0000     4.0000 </r>
       <r>   -11.0598     0.0000     4.0000 </r>
       <r>   -10.9648     0.0000     4.0000 </r>
       <r>   -10.8698     0.0000     4.0000 </r>
       <r>   -10.7748     0.0000     4.0000 </r>
       <r>   -10.6798     0.0000     4.0000 </r>
       <r>   -10.5848    43.0864     8.0935 </r>
       <r>   -10.4898     0.0000     8.0000 </r>
       <r>   -10.3948     0.0000     8.0000 </r>
       <r>   -10.2998     0.0000     8.0000 </r>
       <r>   -10.2048     0.0000     8.0000 </r>
       <r>   -10.1098     0.0000     8.0000 </r>
       <r>   -10.0147     0.0000     8.0000 </r>
       <r>    -9.9197     0.0000     8.0000 </r>
       <r>    -9.8247     0.0000     8.0000 </r>
       <r>    -9.7297     0.0000     8.0000 </r>
       <r>    -9.6347     0.0000     8.0000 </r>
       <r>    -9.5397     0.0000     8.0000 </r>
       <r>    -9.4447     0.0000     8.0000 </r>
       <r>    -9.3497     0.0000     8.0000 </r>
       <r>    -9.2547     0.0000     8.0000 </r>
       <r>    -9.1597     0.0000     8.0000 </r>
       <r>    -9.0647     0.0000     8.0000 </r>
       <r>    -8.9697     0.0000     8.0000 </r>
       <r>    -8.8747     0.0000     8.0000 </r>
       <r>    -8.7797     0.0000     8.0000 </r>
       <r>    -8.6846     0.0000     8.0000 </r>
       <r>    -8.5896     0.0000     8.0000 </r>
       <r>    -8.4946    21.0614    10.0010 </r>
       <r>    -8.3996     0.0000    10.0000 </r>
       <r>    -8.3046     0.0000    10.0000 </r>
       <r>    -8.2096     0.0000    10.0000 </r>
       <r>    -8.1146     0.0000    10.0000 </r>
       <r>    -8.0196     0.0000    10.0000 </r>
       <r>    -7.9246     0.0000    10.0000 </r>
       <r>    -7.8296     0.0000    10.0000 </r>
       <r>    -7.7346     0.0000    10.0000 </r>
       <r>    -7.6396     0.0000    10.0000 </r>
       <r>    -7.5446     0.0000    10.0000 </r>
       <r>    -7.4495     0.0000    10.0000 </r>
       <r>    -7.3545     0.0000    10.0000 </r>
       <r>    -7.2595     0.0000    10.0000 </r>
       <r>    -7.1645     0.0000    10.0000 </r>
       <r>    -7.0695     0.0000    10.0000 </r>
       <r>    -6.9745     0.0000    10.0000 </r>
       <r>    -6.8795     0.0000    10.0000 </r>
       <r>    -6.7845     0.0000    10.0000 </r>
       <r>    -6.6895     0.0000    10.0000 </r>
       <r>    -6.5945     0.0000    10.0000 </r>
       <r>    -6.4995     0.0000    10.0000 </r>
       <r>    -6.4045     0.0000    10.0000 </r>
       <r>    -6.3095     0.0000    10.0000 </r>
       <r>    -6.2145     0.0000    10.0000 </r>
       <r>    -6.1194     0.0000    10.0000 </r>
       <r>    -6.0244     0.0000    10.0000 </r>
       <r>    -5.9294     0.0000    10.0000 </r>
       <r>    -5.8344     0.0000    10.0000 </r>
       <r>    -5.7394     0.0000    10.0000 </r>
       <r>    -5.6444     0.0000    10.0000 </r>
       <r>    -5.5494     0.0000    10.0000 </r>
       <r>    -5.4544     0.0000    10.0000 </r>
       <r>    -5.3594     0.0000    10.0000 </r>
       <r>    -5.2644     0.0000    10.0000 </r>
       <r>    -5.1694     0.0000    10.0000 </r>
       <r>    -5.0744     0.0000    10.0000 </r>
       <r>    -4.9794     0.0000    10.0000 </r>
       <r>    -4.8844     0.0000    10.0000 </r>
       <r>    -4.7893     0.0000    10.0000 </r>
       <r>    -4.6943     0.0000    10.0000 </r>
       <r>    -4.5993     0.0000    10.0000 </r>
       <r>    -4.5043     0.0000    10.0000 </r>
       <r>    -4.4093     0.0000    10.0000 </r>
       <r>    -4.3143     0.0000    10.0000 </r>
       <r>    -4.2193     0.0000    10.0000 </r>
       <r>    -4.1243     0.0000    10.0000 </r>
       <r>    -4.0293     0.0000    10.0000 </r>
       <r>    -3.9343     0.0000    10.0000 </r>
       <r>    -3.8393     0.0000    10.0000 </r>
       <r>    -3.7443     0.0000    10.0000 </r>
       <r>    -3.6493     0.0000    10.0000 </r>
       <r>    -3.5542     0.0000    10.0000 </r>
       <r>    -3.4592     0.0000    10.0000 </r>
       <r>    -3.3642     0.0000    10.0000 </r>
       <r>    -3.2692     0.0000    10.0000 </r>
       <r>    -3.1742     0.0000    10.0000 </r>
       <r>    -3.0792     0.0000    10.0000 </r>
       <r>    -2.9842     0.0000    10.0000 </r>
       <r>    -2.8892     0.0000    10.0000 </r>
       <r>    -2.7942     0.0000    10.0000 </r>
       <r>    -2.6992     0.0000    10.0000 </r>
       <r>    -2.6042     0.0000    10.0000 </r>
       <r>    -2.5092     0.0000    10.0000 </r>
       <r>    -2.4142     0.0000    10.0000 </r>
       <r>    -2.3192     0.0000    10.0000 </r>
       <r>    -2.2241     0.0000    10.0000 </r>
       <r>    -2.1291     0.0000    10.0000 </r>
       <r>    -2.0341     0.0000    10.0000 </r>
       <r>    -1.9391    -0.0001    10.0000 </r>
       <r>    -1.8441    21.0511    12.0000 </r>
       <r>    -1.7491     0.0000    12.0000 </r>
       <r>    -1.6541     0.0000    12.0000 </r>
       <r>    -1.5591     0.0000    12.0000 </r>
       <r>    -1.4641     0.0000    12.0000 </r>
       <r>    -1.3691     0.0000    12.0000 </r>
       <r>    -1.2741     0.0000    12.0000 </r>
       <r>    -1.1791     0.0000    12.0000 </r>
       <r>    -1.0841     0.0000    12.0000 </r>
       <r>    -0.9890     0.0000    12.0000 </r>
       <r>    -0.8940     0.0000    12.0000 </r>
       <r>    -0.7990     0.0000    12.0000 </r>
       <r>    -0.7040     0.0000    12.0000 </r>
       <r>    -0.6090     0.0000    12.0000 </r>
      </set>
     </set>
    </array>
   </total>
  </dos>
 </calculation>
 <structure name="finalpos" >
  <crystal>
   <varray name="basis" >
    <v>       6.00000000       0.00000000       0.00000000 </v>
    <v>       0.00000000       6.00000000       0.00000000 </v>
    <v>       0.00000000       0.00000000       6.00000000 </v>
   </varray>
   <i name="volume">    216.00000000 </i>
   <varray name="rec_basis" >
    <v>       0.16666667       0.00000000       0.00000000 </v>
    <v>       0.00000000       0.16666667       0.00000000 </v>
    <v>       0.00000000       0.00000000       0.16666667 </v>
   </varray>
  </crystal>
  <varray name="positions" >
   <v>       0.00000000       0.00000000       0.00000000 </v>
   <v>       0.20000000       0.00000000       0.00000000 </v>
  </varray>
 </structure>
</modeling>
